 Gaussian 16, Revision A.03,
 Gaussian 16:  EM64L-G16RevA.03 25-Dec-2016

 ------------------------------------------------------------------
 #opt=(calcall, ts, noeigen) ub3lyp/6-31G(d,p) scf=(maxcycles=1024)
 ------------------------------------------------------------------

 ---------------
 something title
 ---------------
 Symbolic Z-matrix:
 Charge =  0 Multiplicity = 1

 SCF Done:  E(UB3LYP) =  -164.075772143     A.U. after   12 cycles
 SCF Done:  E(UB3LYP) =  -164.076891161     A.U. after   11 cycles
 SCF Done:  E(UB3LYP) =  -164.077883022     A.U. after   11 cycles
 SCF Done:  E(UB3LYP) =  -164.078231371     A.U. after   11 cycles
 SCF Done:  E(UB3LYP) =  -164.078245642     A.U. after   10 cycles
 Optimization completed.
    -- Stationary point found.

                         Standard orientation:
 ---------------------------------------------------------------------
 Center     Atomic      Atomic             Coordinates (Angstroms)
 Number     Number       Type             X           Y           Z
 ---------------------------------------------------------------------
      1          7           0       -1.648338   -0.560175   -0.035708
      2          5           0       -0.987305    0.695661   -0.086024
      3          7           0        1.648280   -0.560214    0.035880
      4          5           0        0.987576    0.695494    0.085980
      5          1           0        2.517721   -0.692650   -0.453296
      6          1           0       -1.550488    1.694958    0.240887
      7          1           0       -0.156749    0.850667   -0.996410
      8          1           0       -1.259800   -1.409302   -0.414426
      9          1           0       -2.517854   -0.692317    0.453508
     10          1           0        1.259043   -1.409456    0.413502
     11          1           0        0.156274    0.850252    0.995824
     12          1           0        1.550899    1.694794   -0.240571
 ---------------------------------------------------------------------

 The electronic state is 1-A.
 Alpha  occ. eigenvalues --  -14.31145 -14.31136  -6.74662  -6.74652  -0.85060
 Alpha  occ. eigenvalues --   -0.84233  -0.58752  -0.49845  -0.49359  -0.47967
 Alpha  occ. eigenvalues --   -0.43074  -0.36957  -0.34821  -0.32974  -0.27041
 Alpha  occ. eigenvalues --   -0.23217
 Alpha virt. eigenvalues --    0.02728   0.06457   0.11191   0.12713   0.15111
 Alpha virt. eigenvalues --    0.15595   0.17433   0.21611   0.22607   0.23828
 Alpha virt. eigenvalues --    0.28384   0.34079   0.42200   0.45729   0.47172

  Beta  occ. eigenvalues --  -14.31145 -14.31136  -6.74662  -6.74652  -0.85060
  Beta  occ. eigenvalues --   -0.84233  -0.58752  -0.49845  -0.49359  -0.47967
  Beta  occ. eigenvalues --   -0.43074  -0.36957  -0.34821  -0.32974  -0.27041
  Beta  occ. eigenvalues --   -0.23217
  Beta virt. eigenvalues --    0.02728   0.06457   0.11191   0.12713   0.15111
  Beta virt. eigenvalues --    0.15595   0.17433   0.21611   0.22607   0.23828
  Beta virt. eigenvalues --    0.28384   0.34079   0.42200   0.45729   0.47172

 Mulliken charges and spin densities:
               1          2
     1  N   -0.600961  -0.000000
     2  B    0.201210  -0.000000
     3  N   -0.600707  -0.000000
     4  B    0.201264   0.000000
     5  H    0.251310   0.000000
     6  H   -0.067796  -0.000000
     7  H   -0.026940   0.000000
     8  H    0.242903  -0.000000
     9  H    0.251286  -0.000000
    10  H    0.242959   0.000000
    11  H   -0.026800   0.000000
    12  H   -0.067729  -0.000000
 Sum of Mulliken charges =  -0.00000  -0.00000

 Dipole moment (field-independent basis, Debye):
    X=              0.0022    Y=             -2.7358    Z=             -0.0009  Tot=              2.7358
 Quadrupole moment (field-independent basis, Debye-Ang):
   XX=            -24.0393   YY=            -25.8721   ZZ=            -28.0713
   XY=             -0.0000   XZ=             -2.7332   YZ=              0.0033

  Exact polarizability:  55.544  -0.001  44.233  -1.838   0.000  29.764
 Approx polarizability:  72.739  -0.003  59.577  -0.579  -0.001  43.218

 ******    1 imaginary frequencies (negative Signs) ******

                      1                      2                      3
                      A                      A                      A
 Frequencies --   -257.0777               108.7248               300.7879
 Red. masses --      2.7987                 2.9152                 1.2164
 Frc consts  --      0.1090                 0.0203                 0.0648
 IR Inten    --     21.9057                 0.0150               363.2158

                      4                      5                      6
                      A                      A                      A
 Frequencies --    303.6123               321.6144               385.2188
 Red. masses --      1.4876                 1.5182                 1.0570
 Frc consts  --      0.0808                 0.0925                 0.0924
 IR Inten    --     11.3271                 0.0514               111.6126

                      7                      8                      9
                      A                      A                      A
 Frequencies --    449.7532               572.7056               693.5820
 Red. masses --      2.8003                 1.3537                 1.1030
 Frc consts  --      0.3337                 0.2616                 0.3126
 IR Inten    --     15.9814                 0.0600                54.1766

                     10                     11                     12
                      A                      A                      A
 Frequencies --    733.2565               876.8107               911.7570
 Red. masses --      1.1345                 1.1190                 1.2170
 Frc consts  --      0.3594                 0.5069                 0.5961
 IR Inten    --      0.0383                 6.6955               207.5263

                     13                     14                     15
                      A                      A                      A
 Frequencies --   1014.5325              1091.2311              1092.7813
 Red. masses --      1.2922                 1.3507                 1.4257
 Frc consts  --      0.7836                 0.9476                 1.0031
 IR Inten    --    559.0548                 5.0029                 3.1250

                     16                     17                     18
                      A                      A                      A
 Frequencies --   1123.1609              1132.4950              1288.7292
 Red. masses --      1.3745                 1.1767                 1.9998
 Frc consts  --      1.0216                 0.8892                 1.9569
 IR Inten    --      7.2815                19.9116                84.8788

                     19                     20                     21
                      A                      A                      A
 Frequencies --   1294.8301              1433.8700              1630.2111
 Red. masses --      2.1084                 1.1105                 1.1956
 Frc consts  --      2.0828                 1.3452                 1.8720
 IR Inten    --     32.4797                 0.1941                50.1237

                     22                     23                     24
                      A                      A                      A
 Frequencies --   1630.4842              2312.8450              2329.0475
 Red. masses --      1.1824                 1.0891                 1.0635
 Frc consts  --      1.8521                 3.4327                 3.3991
 IR Inten    --    108.2706               276.4325                 4.1125

                     25                     26                     27
                      A                      A                      A
 Frequencies --   2653.0281              2661.0850              3624.0735
 Red. masses --      1.0990                 1.0981                 1.0487
 Frc consts  --      4.5576                 4.5815                 8.1151
 IR Inten    --     70.0334               159.6656                21.1912

                     28                     29                     30
                      A                      A                      A
 Frequencies --   3625.5475              3728.1658              3728.8816
 Red. masses --      1.0493                 1.0981                 1.0982
 Frc consts  --      8.1263                 8.9927                 8.9967
 IR Inten    --     19.3918                33.1580                 6.2645

 - Thermochemistry -
 -------------------
 Temperature   298.150 Kelvin.  Pressure   1.00000 Atm.
 Atom     1 has atomic number  7 and mass  14.00307

 Molecular mass:    58.08736 amu.
 Principal axes and moments of inertia in atomic units:
                           1         2         3
     Eigenvalues --   123.92307 433.90583 536.07250
           X            0.99987   0.00000  -0.01589
           Y           -0.00000   1.00000   0.00003
           Z            0.01589  -0.00003   0.99987
 This molecule is an asymmetric top.
 Rotational symmetry number  1.
 Rotational temperatures (Kelvin)      0.69893     0.19961     0.16157
 Rotational constants (GHZ):          14.56340     4.15929     3.36660
    1 imaginary frequencies ignored.
 Zero-point vibrational energy     257513.1 (Joules/Mol)
                                   61.54710 (Kcal/Mol)
 Warning -- explicit consideration of   7 degrees of freedom as
           vibrations may cause significant error
 Vibrational temperatures:    156.43   432.77   436.83   462.73   554.24
          (Kelvin)            647.09   824.00   997.91  1054.99  1261.54
                             1311.81  1459.69  1570.04  1572.27  1615.98
                             1629.41  1854.19  1862.97  2063.02  2345.51
                             2345.90  3327.67  3350.98  3817.12  3828.71
                             5214.23  5216.35  5364.00  5365.03

 Zero-point correction=                           0.098082 (Hartree/Particle)
 Thermal correction to Energy=                    0.104117
 Thermal correction to Enthalpy=                  0.105061
 Thermal correction to Gibbs Free Energy=         0.069916
 Sum of electronic and zero-point Energies=           -163.980164
 Sum of electronic and thermal Energies=              -163.974129
 Sum of electronic and thermal Enthalpies=            -163.973185
 Sum of electronic and thermal Free Energies=         -164.008330

                     E (Thermal)             CV                S
                      KCal/Mol        Cal/Mol-Kelvin    Cal/Mol-Kelvin
 Total                   65.334             21.404             73.969
 Electronic               0.000              0.000              0.000
 Translational            0.889              2.981             38.099
 Rotational               0.889              2.981             24.870
 Vibrational             63.557             15.443             11.001
 Vibration     1          0.606              1.942              3.292
 Vibration     2          0.693              1.672              1.413
 Vibration     3          0.695              1.667              1.397
 Vibration     4          0.707              1.632              1.302
 Vibration     5          0.754              1.502              1.019
 Vibration     6          0.809              1.361              0.797
 Vibration     7          0.929              1.090              0.499

 Normal termination of Gaussian 16 at Fri Jul  3 19:07:59 2020.
