 Gaussian 16, Revision A.03,
 Gaussian 16:  EM64L-G16RevA.03 25-Dec-2016

 ------------------------------------------------------------------
 #opt=(calcall, ts, noeigen) ub3lyp/6-31G(d,p) scf=(maxcycles=1024)
 ------------------------------------------------------------------

 ---------------
 something title
 ---------------
 Symbolic Z-matrix:
 Charge =  0 Multiplicity = 1

 SCF Done:  E(UB3LYP) =  -164.045116224     A.U. after   13 cycles
 SCF Done:  E(UB3LYP) =  -164.063186876     A.U. after   13 cycles
 SCF Done:  E(UB3LYP) =  -164.070314917     A.U. after   13 cycles
 SCF Done:  E(UB3LYP) =  -164.075054575     A.U. after   13 cycles
 SCF Done:  E(UB3LYP) =  -164.077919562     A.U. after   12 cycles
 SCF Done:  E(UB3LYP) =  -164.078316208     A.U. after   11 cycles
 SCF Done:  E(UB3LYP) =  -164.078377168     A.U. after   11 cycles
 SCF Done:  E(UB3LYP) =  -164.078480384     A.U. after   12 cycles
 SCF Done:  E(UB3LYP) =  -164.078543131     A.U. after   11 cycles
 SCF Done:  E(UB3LYP) =  -164.078481382     A.U. after   11 cycles
 SCF Done:  E(UB3LYP) =  -164.078730951     A.U. after   10 cycles
 SCF Done:  E(UB3LYP) =  -164.078744429     A.U. after   10 cycles
 SCF Done:  E(UB3LYP) =  -164.078747184     A.U. after   10 cycles
 SCF Done:  E(UB3LYP) =  -164.078746818     A.U. after    9 cycles
 SCF Done:  E(UB3LYP) =  -164.078746808     A.U. after    7 cycles
 Optimization completed.
    -- Stationary point found.

                         Standard orientation:
 ---------------------------------------------------------------------
 Center     Atomic      Atomic             Coordinates (Angstroms)
 Number     Number       Type             X           Y           Z
 ---------------------------------------------------------------------
      1          7           0       -1.669947   -0.547830   -0.044187
      2          5           0       -0.911960    0.669488   -0.022591
      3          7           0        1.669947   -0.547830    0.044185
      4          5           0        0.911959    0.669488    0.022592
      5          1           0        2.630362   -0.551667   -0.255794
      6          1           0       -1.484790    1.711516    0.075004
      7          1           0       -0.036456    0.798291   -0.976117
      8          1           0       -1.270662   -1.470771   -0.101588
      9          1           0       -2.630360   -0.551668    0.255800
     10          1           0        1.270663   -1.470771    0.101591
     11          1           0        0.036456    0.798291    0.976118
     12          1           0        1.484789    1.711516   -0.075003
 ---------------------------------------------------------------------

 The electronic state is 1-A.
 Alpha  occ. eigenvalues --  -14.30486 -14.30486  -6.75211  -6.75192  -0.84615
 Alpha  occ. eigenvalues --   -0.83687  -0.61804  -0.49639  -0.49054  -0.46634
 Alpha  occ. eigenvalues --   -0.43381  -0.39803  -0.34435  -0.33351  -0.26671
 Alpha  occ. eigenvalues --   -0.22180
 Alpha virt. eigenvalues --    0.05106   0.05815   0.10701   0.12023   0.13762
 Alpha virt. eigenvalues --    0.16707   0.18422   0.20847   0.24016   0.28180
 Alpha virt. eigenvalues --    0.28857   0.36473   0.39348   0.43869   0.48243

  Beta  occ. eigenvalues --  -14.30486 -14.30486  -6.75211  -6.75192  -0.84615
  Beta  occ. eigenvalues --   -0.83687  -0.61804  -0.49639  -0.49054  -0.46634
  Beta  occ. eigenvalues --   -0.43381  -0.39803  -0.34435  -0.33351  -0.26671
  Beta  occ. eigenvalues --   -0.22180
  Beta virt. eigenvalues --    0.05106   0.05815   0.10701   0.12023   0.13762
  Beta virt. eigenvalues --    0.16707   0.18422   0.20847   0.24016   0.28180
  Beta virt. eigenvalues --    0.28857   0.36473   0.39348   0.43869   0.48243

 Mulliken charges and spin densities:
               1          2
     1  N   -0.633118   0.000000
     2  B    0.209276  -0.000000
     3  N   -0.633118   0.000000
     4  B    0.209276   0.000000
     5  H    0.250339   0.000000
     6  H   -0.061036   0.000000
     7  H   -0.002045   0.000000
     8  H    0.236584   0.000000
     9  H    0.250339   0.000000
    10  H    0.236584  -0.000000
    11  H   -0.002045   0.000000
    12  H   -0.061036  -0.000000
 Sum of Mulliken charges =  -0.00000   0.00000

 Dipole moment (field-independent basis, Debye):
    X=              0.0000    Y=             -2.2369    Z=              0.0000  Tot=              2.2369
 Quadrupole moment (field-independent basis, Debye-Ang):
   XX=            -23.4107   YY=            -25.5857   ZZ=            -28.9449
   XY=             -0.0000   XZ=             -2.6494   YZ=             -0.0000

  Exact polarizability:  55.578  -0.000  42.754  -0.923  -0.000  27.185
 Approx polarizability:  72.419  -0.000  56.829  -0.102   0.000  39.618

 ******    1 imaginary frequencies (negative Signs) ******

                      1                      2                      3
                      A                      A                      A
 Frequencies --   -101.9322               144.5869               174.5719
 Red. masses --      1.1159                 2.8004                 1.1988
 Frc consts  --      0.0068                 0.0345                 0.0215
 IR Inten    --     11.2020                 2.1725                 0.2159

                      4                      5                      6
                      A                      A                      A
 Frequencies --    188.1182               373.2799               414.8962
 Red. masses --      1.2027                 4.6548                 1.0989
 Frc consts  --      0.0251                 0.3821                 0.1115
 IR Inten    --    462.2792                 0.0810                34.3003

                      7                      8                      9
                      A                      A                      A
 Frequencies --    474.0073               640.6492               719.5055
 Red. masses --      2.2385                 2.7283                 1.2471
 Frc consts  --      0.2963                 0.6598                 0.3804
 IR Inten    --      3.4232                 1.5943                 2.4792

                     10                     11                     12
                      A                      A                      A
 Frequencies --    764.8331               852.2315               928.2774
 Red. masses --      1.0677                 1.0991                 1.3037
 Frc consts  --      0.3680                 0.4703                 0.6619
 IR Inten    --      0.8001                 3.5619                24.7403

                     13                     14                     15
                      A                      A                      A
 Frequencies --   1068.5224              1077.4602              1103.5481
 Red. masses --      1.3207                 1.4990                 1.0980
 Frc consts  --      0.8884                 1.0253                 0.7879
 IR Inten    --      1.8810                 5.5113                11.8529

                     16                     17                     18
                      A                      A                      A
 Frequencies --   1120.7191              1228.8456              1295.8764
 Red. masses --      1.4267                 2.3171                 2.7728
 Frc consts  --      1.0558                 2.0615                 2.7434
 IR Inten    --     11.9929               451.1304                84.6290

                     19                     20                     21
                      A                      A                      A
 Frequencies --   1542.9708              1624.6341              1626.3962
 Red. masses --      1.0809                 1.0734                 1.1792
 Frc consts  --      1.5162                 1.6693                 1.8378
 IR Inten    --    453.8033                55.9857                58.2076

                     22                     23                     24
                      A                      A                      A
 Frequencies --   1656.2466              1987.7193              2167.9372
 Red. masses --      1.0974                 1.1146                 1.0238
 Frc consts  --      1.7736                 2.5946                 2.8351
 IR Inten    --     40.3974               194.8060                 1.8372

                     25                     26                     27
                      A                      A                      A
 Frequencies --   2645.1964              2657.2025              3628.3555
 Red. masses --      1.0938                 1.0949                 1.0492
 Frc consts  --      4.5090                 4.5550                 8.1385
 IR Inten    --     42.7892               150.8969                26.8309

                     28                     29                     30
                      A                      A                      A
 Frequencies --   3631.2869              3729.8831              3730.4586
 Red. masses --      1.0496                 1.0973                 1.0973
 Frc consts  --      8.1546                 8.9944                 8.9972
 IR Inten    --     11.1305                30.9859                 1.8150

 - Thermochemistry -
 -------------------
 Temperature   298.150 Kelvin.  Pressure   1.00000 Atm.
 Atom     1 has atomic number  7 and mass  14.00307

 Molecular mass:    58.08736 amu.
 Principal axes and moments of inertia in atomic units:
                           1         2         3
     Eigenvalues --   116.31233 429.28041 530.33341
           X            0.99994  -0.00000  -0.01097
           Y            0.00000   1.00000  -0.00000
           Z            0.01097   0.00000   0.99994
 This molecule is an asymmetric top.
 Rotational symmetry number  1.
 Rotational temperatures (Kelvin)      0.74467     0.20177     0.16332
 Rotational constants (GHZ):          15.51634     4.20411     3.40303
    1 imaginary frequencies ignored.
 Zero-point vibrational energy     258382.7 (Joules/Mol)
                                   61.75495 (Kcal/Mol)
 Warning -- explicit consideration of   6 degrees of freedom as
           vibrations may cause significant error
 Vibrational temperatures:    208.03   251.17   270.66   537.07   596.94
          (Kelvin)            681.99   921.75  1035.21  1100.42  1226.17
                             1335.58  1537.37  1550.22  1587.76  1612.46
                             1768.03  1864.48  2219.99  2337.49  2340.02
                             2382.97  2859.88  3119.18  3805.85  3823.12
                             5220.39  5224.61  5366.47  5367.30

 Zero-point correction=                           0.098413 (Hartree/Particle)
 Thermal correction to Energy=                    0.104544
 Thermal correction to Enthalpy=                  0.105488
 Thermal correction to Gibbs Free Energy=         0.070084
 Sum of electronic and zero-point Energies=           -163.980334
 Sum of electronic and thermal Energies=              -163.974203
 Sum of electronic and thermal Enthalpies=            -163.973259
 Sum of electronic and thermal Free Energies=         -164.008663

                     E (Thermal)             CV                S
                      KCal/Mol        Cal/Mol-Kelvin    Cal/Mol-Kelvin
 Total                   65.602             21.062             74.515
 Electronic               0.000              0.000              0.000
 Translational            0.889              2.981             38.099
 Rotational               0.889              2.981             24.785
 Vibrational             63.825             15.100             11.631
 Vibration     1          0.616              1.909              2.742
 Vibration     2          0.627              1.874              2.386
 Vibration     3          0.633              1.856              2.246
 Vibration     4          0.745              1.527              1.066
 Vibration     5          0.778              1.438              0.909
 Vibration     6          0.831              1.308              0.726

 Normal termination of Gaussian 16 at Fri Jul  3 18:26:48 2020.
