 Gaussian 16, Revision A.03,
 Gaussian 16:  EM64L-G16RevA.03 25-Dec-2016

 ------------------------------------------------
 #opt freq ub3lyp/6-31G(d,p) scf=(maxcycles=1024)
 ------------------------------------------------

 ---------------
 something title
 ---------------
 Symbolic Z-matrix:
 Charge =  0 Multiplicity = 1

 SCF Done:  E(UB3LYP) =  -164.078480207     A.U. after   12 cycles
 SCF Done:  E(UB3LYP) =  -164.078549554     A.U. after    9 cycles
 SCF Done:  E(UB3LYP) =  -164.078420831     A.U. after   10 cycles
 SCF Done:  E(UB3LYP) =  -164.078604203     A.U. after    9 cycles
 SCF Done:  E(UB3LYP) =  -164.078653339     A.U. after    9 cycles
 SCF Done:  E(UB3LYP) =  -164.078750396     A.U. after   10 cycles
 SCF Done:  E(UB3LYP) =  -164.078793757     A.U. after   10 cycles
 SCF Done:  E(UB3LYP) =  -164.078811761     A.U. after    7 cycles
 SCF Done:  E(UB3LYP) =  -164.078823987     A.U. after    8 cycles
 SCF Done:  E(UB3LYP) =  -164.078837439     A.U. after    9 cycles
 SCF Done:  E(UB3LYP) =  -164.078730636     A.U. after   10 cycles
 SCF Done:  E(UB3LYP) =  -164.079037045     A.U. after    6 cycles
 SCF Done:  E(UB3LYP) =  -164.079044615     A.U. after   10 cycles
 SCF Done:  E(UB3LYP) =  -164.079137778     A.U. after   10 cycles
 SCF Done:  E(UB3LYP) =  -164.079160113     A.U. after   10 cycles
 SCF Done:  E(UB3LYP) =  -164.079197720     A.U. after    9 cycles
 SCF Done:  E(UB3LYP) =  -164.079199321     A.U. after    7 cycles
 SCF Done:  E(UB3LYP) =  -164.079200974     A.U. after    7 cycles
 SCF Done:  E(UB3LYP) =  -164.079201247     A.U. after    7 cycles
 Optimization completed.
    -- Stationary point found.
 Normal termination of Gaussian 16 at Fri Jul  3 19:21:05 2020.

 ----------------------------------------------------------------------
 #N Geom=AllCheck Guess=TCheck SCRF=Check GenChk UB3LYP/6-31G(d,p) Freq
 ----------------------------------------------------------------------

 Structure from the checkpoint file:  "/scratch/1311849/Gau-12470.chk"
 ---------------
 something title
 ---------------
 Charge =  0 Multiplicity = 1

                         Standard orientation:
 ---------------------------------------------------------------------
 Center     Atomic      Atomic             Coordinates (Angstroms)
 Number     Number       Type             X           Y           Z
 ---------------------------------------------------------------------
      1          7           0        1.589251   -0.575516   -0.030187
      2          5           0        0.907555    0.690754    0.004762
      3          7           0       -1.589231   -0.575490    0.030119
      4          5           0       -0.907555    0.690767   -0.004772
      5          1           0       -2.596074   -0.588807    0.011544
      6          1           0        1.520151    1.709028   -0.101385
      7          1           0        0.047650    0.859845    0.971240
      8          1           0        1.187056   -1.405309    0.379507
      9          1           0        2.596084   -0.588753   -0.010806
     10          1           0       -1.187239   -1.405335   -0.379646
     11          1           0       -0.047613    0.859720   -0.971227
     12          1           0       -1.520153    1.709048    0.101298
 ---------------------------------------------------------------------

 SCF Done:  E(UB3LYP) =  -164.079201247     A.U. after    1 cycles

 The electronic state is 1-A.
 Alpha  occ. eigenvalues --  -14.30414 -14.30413  -6.75281  -6.75260  -0.84741
 Alpha  occ. eigenvalues --   -0.83583  -0.61996  -0.49519  -0.48641  -0.46006
 Alpha  occ. eigenvalues --   -0.43128  -0.40078  -0.34865  -0.33392  -0.26696
 Alpha  occ. eigenvalues --   -0.22414
 Alpha virt. eigenvalues --    0.04559   0.06449   0.10201   0.12231   0.15051
 Alpha virt. eigenvalues --    0.16485   0.17897   0.21158   0.23710   0.25906
 Alpha virt. eigenvalues --    0.29177   0.36625   0.40050   0.44546   0.47897

  Beta  occ. eigenvalues --  -14.30414 -14.30413  -6.75281  -6.75260  -0.84741
  Beta  occ. eigenvalues --   -0.83583  -0.61996  -0.49519  -0.48641  -0.46006
  Beta  occ. eigenvalues --   -0.43128  -0.40078  -0.34865  -0.33392  -0.26696
  Beta  occ. eigenvalues --   -0.22414
  Beta virt. eigenvalues --    0.04559   0.06449   0.10201   0.12231   0.15051
  Beta virt. eigenvalues --    0.16485   0.17897   0.21158   0.23710   0.25906
  Beta virt. eigenvalues --    0.29177   0.36625   0.40050   0.44546   0.47897

 Mulliken charges and spin densities:
               1          2
     1  N   -0.639118   0.000000
     2  B    0.206774   0.000000
     3  N   -0.639128  -0.000000
     4  B    0.206795   0.000000
     5  H    0.249707  -0.000000
     6  H   -0.058653  -0.000000
     7  H    0.000497  -0.000000
     8  H    0.240766  -0.000000
     9  H    0.249701   0.000000
    10  H    0.240786  -0.000000
    11  H    0.000519  -0.000000
    12  H   -0.058645   0.000000
 Sum of Mulliken charges =  -0.00000   0.00000

 Dipole moment (field-independent basis, Debye):
    X=             -0.0006    Y=             -1.8049    Z=              0.0010  Tot=              1.8049
 Quadrupole moment (field-independent basis, Debye-Ang):
   XX=            -22.6396   YY=            -26.4000   ZZ=            -28.6686
   XY=              0.0012   XZ=              1.6052   YZ=             -0.0006

  Exact polarizability:  54.722   0.000  42.638  -0.752   0.001  27.543
 Approx polarizability:  71.114   0.001  57.078  -1.628   0.002  40.077

                      1                      2                      3
                      A                      A                      A
 Frequencies --    109.1271               212.7773               305.1494
 Red. masses --      2.7598                 1.2044                 1.2418
 Frc consts  --      0.0194                 0.0321                 0.0681
 IR Inten    --      1.3377                18.7994               356.2458

                      4                      5                      6
                      A                      A                      A
 Frequencies --    356.8309               358.2385               419.9223
 Red. masses --      1.0602                 1.3057                 2.8991
 Frc consts  --      0.0795                 0.0987                 0.3012
 IR Inten    --      7.3743                48.6258                26.7954

                      7                      8                      9
                      A                      A                      A
 Frequencies --    481.8213               651.5853               738.7316
 Red. masses --      2.4466                 2.6373                 1.2423
 Frc consts  --      0.3346                 0.6597                 0.3995
 IR Inten    --      3.0741                 3.9370                 1.1133

                     10                     11                     12
                      A                      A                      A
 Frequencies --    789.6166               831.1020               932.1790
 Red. masses --      1.0878                 1.1318                 1.2666
 Frc consts  --      0.3996                 0.4606                 0.6484
 IR Inten    --      0.3948                 6.4562                18.0360

                     13                     14                     15
                      A                      A                      A
 Frequencies --   1074.7842              1087.6203              1113.9201
 Red. masses --      1.2685                 1.2702                 1.2538
 Frc consts  --      0.8633                 0.8853                 0.9166
 IR Inten    --      8.7111                 0.0293                 5.2642

                     16                     17                     18
                      A                      A                      A
 Frequencies --   1119.6121              1223.3259              1291.7992
 Red. masses --      1.5351                 2.2949                 2.5365
 Frc consts  --      1.1338                 2.0235                 2.4939
 IR Inten    --     13.8621               402.7836                89.8945

                     19                     20                     21
                      A                      A                      A
 Frequencies --   1549.8566              1625.4997              1640.1129
 Red. masses --      1.0802                 1.1746                 1.1493
 Frc consts  --      1.5288                 1.8285                 1.8215
 IR Inten    --    487.1735                48.6465                83.7876

                     22                     23                     24
                      A                      A                      A
 Frequencies --   1651.8298              1969.2394              2164.8344
 Red. masses --      1.0219                 1.1146                 1.0233
 Frc consts  --      1.6427                 2.5465                 2.8257
 IR Inten    --      0.0080               152.7019                 2.9841

                     25                     26                     27
                      A                      A                      A
 Frequencies --   2645.3140              2657.2466              3610.9890
 Red. masses --      1.0939                 1.0955                 1.0499
 Frc consts  --      4.5100                 4.5574                 8.0660
 IR Inten    --     48.6008               143.4711                17.5432

                     28                     29                     30
                      A                      A                      A
 Frequencies --   3613.5871              3713.3147              3714.3560
 Red. masses --      1.0502                 1.0960                 1.0962
 Frc consts  --      8.0800                 8.9042                 8.9109
 IR Inten    --     11.4545                33.5841                 1.8138

 - Thermochemistry -
 -------------------
 Temperature   298.150 Kelvin.  Pressure   1.00000 Atm.
 Atom     1 has atomic number  7 and mass  14.00307

 Molecular mass:    58.08736 amu.
 Principal axes and moments of inertia in atomic units:
                           1         2         3
     Eigenvalues --   121.67657 400.66322 506.37587
           X            0.99998   0.00001   0.00570
           Y           -0.00001   1.00000  -0.00001
           Z           -0.00570   0.00001   0.99998
 This molecule is an asymmetric top.
 Rotational symmetry number  1.
 Rotational temperatures (Kelvin)      0.71184     0.21618     0.17105
 Rotational constants (GHZ):          14.83228     4.50438     3.56403
 Zero-point vibrational energy     261110.8 (Joules/Mol)
                                   62.40699 (Kcal/Mol)
 Warning -- explicit consideration of   7 degrees of freedom as
           vibrations may cause significant error
 Vibrational temperatures:    157.01   306.14   439.04   513.40   515.43
          (Kelvin)            604.17   693.23   937.49  1062.87  1136.08
                             1195.77  1341.20  1546.37  1564.84  1602.68
                             1610.87  1760.09  1858.61  2229.90  2338.73
                             2359.76  2376.61  2833.30  3114.71  3806.02
                             3823.19  5195.41  5199.15  5342.63  5344.13

 Zero-point correction=                           0.099452 (Hartree/Particle)
 Thermal correction to Energy=                    0.105762
 Thermal correction to Enthalpy=                  0.106706
 Thermal correction to Gibbs Free Energy=         0.071132
 Sum of electronic and zero-point Energies=           -163.979749
 Sum of electronic and thermal Energies=              -163.973439
 Sum of electronic and thermal Enthalpies=            -163.972495
 Sum of electronic and thermal Free Energies=         -164.008069

                     E (Thermal)             CV                S
                      KCal/Mol        Cal/Mol-Kelvin    Cal/Mol-Kelvin
 Total                   66.367             22.322             74.873
 Electronic               0.000              0.000              0.000
 Translational            0.889              2.981             38.099
 Rotational               0.889              2.981             24.716
 Vibrational             64.589             16.361             12.058
 Vibration     1          0.606              1.942              3.284
 Vibration     2          0.644              1.821              2.020
 Vibration     3          0.696              1.664              1.388
 Vibration     4          0.732              1.561              1.136
 Vibration     5          0.733              1.558              1.130
 Vibration     6          0.783              1.427              0.892
 Vibration     7          0.838              1.290              0.705

 Optimization completed.
    -- Stationary point found.
 Normal termination of Gaussian 16 at Fri Jul  3 19:23:57 2020.
