 Gaussian 16, Revision A.03,
 Gaussian 16:  EM64L-G16RevA.03 25-Dec-2016

 ------------------------------------------------
 #opt freq ub3lyp/6-31G(d,p) scf=(maxcycles=1024)
 ------------------------------------------------

 ---------------
 something title
 ---------------
 Symbolic Z-matrix:
 Charge =  0 Multiplicity = 1

 SCF Done:  E(UB3LYP) =  -164.078644543     A.U. after   12 cycles
 SCF Done:  E(UB3LYP) =  -164.078767212     A.U. after    8 cycles
 SCF Done:  E(UB3LYP) =  -164.078770285     A.U. after    7 cycles
 SCF Done:  E(UB3LYP) =  -164.078775061     A.U. after    7 cycles
 SCF Done:  E(UB3LYP) =  -164.078777000     A.U. after    7 cycles
 SCF Done:  E(UB3LYP) =  -164.078781062     A.U. after    8 cycles
 SCF Done:  E(UB3LYP) =  -164.078786932     A.U. after    8 cycles
 SCF Done:  E(UB3LYP) =  -164.078806570     A.U. after    9 cycles
 SCF Done:  E(UB3LYP) =  -164.078818297     A.U. after   10 cycles
 SCF Done:  E(UB3LYP) =  -164.078766483     A.U. after   11 cycles
 SCF Done:  E(UB3LYP) =  -164.079124359     A.U. after    9 cycles
 SCF Done:  E(UB3LYP) =  -164.079151219     A.U. after    7 cycles
 SCF Done:  E(UB3LYP) =  -164.079161394     A.U. after    8 cycles
 SCF Done:  E(UB3LYP) =  -164.079170700     A.U. after    8 cycles
 SCF Done:  E(UB3LYP) =  -164.079182299     A.U. after    8 cycles
 SCF Done:  E(UB3LYP) =  -164.079194671     A.U. after    8 cycles
 SCF Done:  E(UB3LYP) =  -164.079198421     A.U. after    8 cycles
 SCF Done:  E(UB3LYP) =  -164.079200964     A.U. after    7 cycles
 SCF Done:  E(UB3LYP) =  -164.079201197     A.U. after    6 cycles
 Optimization completed.
    -- Stationary point found.
 Normal termination of Gaussian 16 at Fri Jul  3 18:38:06 2020.

 ----------------------------------------------------------------------
 #N Geom=AllCheck Guess=TCheck SCRF=Check GenChk UB3LYP/6-31G(d,p) Freq
 ----------------------------------------------------------------------

 Structure from the checkpoint file:  "/scratch/1311839/Gau-8894.chk"
 ---------------
 something title
 ---------------
 Charge =  0 Multiplicity = 1

                         Standard orientation:
 ---------------------------------------------------------------------
 Center     Atomic      Atomic             Coordinates (Angstroms)
 Number     Number       Type             X           Y           Z
 ---------------------------------------------------------------------
      1          7           0       -1.588506   -0.575737    0.030199
      2          5           0       -0.907499    0.691010   -0.004613
      3          7           0        1.588507   -0.575738   -0.030199
      4          5           0        0.907499    0.691010    0.004613
      5          1           0        2.595375   -0.589420   -0.011260
      6          1           0       -1.520276    1.709255    0.100603
      7          1           0       -0.047569    0.860279   -0.971087
      8          1           0       -1.186015   -1.405001   -0.380146
      9          1           0       -2.595374   -0.589420    0.011267
     10          1           0        1.186012   -1.405002    0.380141
     11          1           0        0.047569    0.860280    0.971086
     12          1           0        1.520277    1.709254   -0.100604
 ---------------------------------------------------------------------

 SCF Done:  E(UB3LYP) =  -164.079201197     A.U. after    1 cycles

 The electronic state is 1-A.
 Alpha  occ. eigenvalues --  -14.30413 -14.30413  -6.75282  -6.75262  -0.84742
 Alpha  occ. eigenvalues --   -0.83581  -0.62000  -0.49521  -0.48638  -0.46001
 Alpha  occ. eigenvalues --   -0.43126  -0.40080  -0.34870  -0.33395  -0.26693
 Alpha  occ. eigenvalues --   -0.22415
 Alpha virt. eigenvalues --    0.04557   0.06452   0.10198   0.12233   0.15056
 Alpha virt. eigenvalues --    0.16489   0.17895   0.21158   0.23706   0.25906
 Alpha virt. eigenvalues --    0.29167   0.36639   0.40048   0.44550   0.47896

  Beta  occ. eigenvalues --  -14.30413 -14.30413  -6.75282  -6.75262  -0.84742
  Beta  occ. eigenvalues --   -0.83581  -0.62000  -0.49521  -0.48638  -0.46001
  Beta  occ. eigenvalues --   -0.43126  -0.40080  -0.34870  -0.33395  -0.26693
  Beta  occ. eigenvalues --   -0.22415
  Beta virt. eigenvalues --    0.04557   0.06452   0.10198   0.12233   0.15056
  Beta virt. eigenvalues --    0.16489   0.17895   0.21158   0.23706   0.25906
  Beta virt. eigenvalues --    0.29167   0.36639   0.40048   0.44550   0.47896

 Mulliken charges and spin densities:
               1          2
     1  N   -0.639273  -0.000000
     2  B    0.206838   0.000000
     3  N   -0.639272   0.000000
     4  B    0.206839  -0.000000
     5  H    0.249691   0.000000
     6  H   -0.058591  -0.000000
     7  H    0.000524   0.000000
     8  H    0.240810   0.000000
     9  H    0.249691   0.000000
    10  H    0.240810  -0.000000
    11  H    0.000524   0.000000
    12  H   -0.058591   0.000000
 Sum of Mulliken charges =  -0.00000   0.00000

 Dipole moment (field-independent basis, Debye):
    X=             -0.0000    Y=             -1.8027    Z=              0.0000  Tot=              1.8027
 Quadrupole moment (field-independent basis, Debye-Ang):
   XX=            -22.6432   YY=            -26.4016   ZZ=            -28.6666
   XY=              0.0000   XZ=              1.6048   YZ=              0.0000

  Exact polarizability:  54.711  -0.000  42.638  -0.753   0.000  27.542
 Approx polarizability:  71.102  -0.000  57.080  -1.634   0.000  40.074

                      1                      2                      3
                      A                      A                      A
 Frequencies --    109.4075               214.1985               305.5691
 Red. masses --      2.7658                 1.2028                 1.2463
 Frc consts  --      0.0195                 0.0325                 0.0686
 IR Inten    --      1.4162                18.6651               357.3629

                      4                      5                      6
                      A                      A                      A
 Frequencies --    355.8825               358.0415               419.9612
 Red. masses --      1.0564                 1.3030                 2.9155
 Frc consts  --      0.0788                 0.0984                 0.3030
 IR Inten    --      6.0072                49.1556                26.6508

                      7                      8                      9
                      A                      A                      A
 Frequencies --    481.8352               651.8779               738.8183
 Red. masses --      2.4468                 2.6389                 1.2427
 Frc consts  --      0.3347                 0.6607                 0.3997
 IR Inten    --      3.0137                 3.9171                 1.0974

                     10                     11                     12
                      A                      A                      A
 Frequencies --    789.5102               830.9824               932.0968
 Red. masses --      1.0882                 1.1314                 1.2666
 Frc consts  --      0.3997                 0.4603                 0.6483
 IR Inten    --      0.3911                 6.4251                18.0050

                     13                     14                     15
                      A                      A                      A
 Frequencies --   1074.6628              1087.6721              1113.8100
 Red. masses --      1.2690                 1.2701                 1.2537
 Frc consts  --      0.8635                 0.8853                 0.9163
 IR Inten    --      8.6663                 0.0261                 5.1827

                     16                     17                     18
                      A                      A                      A
 Frequencies --   1119.4556              1223.1740              1291.6538
 Red. masses --      1.5364                 2.2934                 2.5348
 Frc consts  --      1.1344                 2.0216                 2.4917
 IR Inten    --     13.8964               401.9873                89.9408

                     19                     20                     21
                      A                      A                      A
 Frequencies --   1550.6317              1625.3584              1640.0029
 Red. masses --      1.0801                 1.1745                 1.1493
 Frc consts  --      1.5301                 1.8281                 1.8212
 IR Inten    --    487.8423                48.6084                83.8018

                     22                     23                     24
                      A                      A                      A
 Frequencies --   1652.2692              1969.0026              2165.0281
 Red. masses --      1.0217                 1.1146                 1.0233
 Frc consts  --      1.6434                 2.5461                 2.8261
 IR Inten    --      0.0114               152.3397                 2.9929

                     25                     26                     27
                      A                      A                      A
 Frequencies --   2645.4258              2657.3636              3611.1956
 Red. masses --      1.0939                 1.0955                 1.0498
 Frc consts  --      4.5103                 4.5578                 8.0664
 IR Inten    --     48.6073               143.4211                17.6734

                     28                     29                     30
                      A                      A                      A
 Frequencies --   3613.7819              3713.2708              3714.3248
 Red. masses --      1.0502                 1.0961                 1.0963
 Frc consts  --      8.0804                 8.9046                 8.9114
 IR Inten    --     11.4299                33.4420                 1.8043

 - Thermochemistry -
 -------------------
 Temperature   298.150 Kelvin.  Pressure   1.00000 Atm.
 Atom     1 has atomic number  7 and mass  14.00307

 Molecular mass:    58.08736 amu.
 Principal axes and moments of inertia in atomic units:
                           1         2         3
     Eigenvalues --   121.74108 400.37884 506.15591
           X            0.99998   0.00000   0.00573
           Y           -0.00000   1.00000   0.00000
           Z           -0.00573  -0.00000   0.99998
 This molecule is an asymmetric top.
 Rotational symmetry number  1.
 Rotational temperatures (Kelvin)      0.71146     0.21633     0.17112
 Rotational constants (GHZ):          14.82442     4.50758     3.56558
 Zero-point vibrational energy     261122.5 (Joules/Mol)
                                   62.40976 (Kcal/Mol)
 Warning -- explicit consideration of   7 degrees of freedom as
           vibrations may cause significant error
 Vibrational temperatures:    157.41   308.18   439.65   512.04   515.14
          (Kelvin)            604.23   693.25   937.91  1062.99  1135.93
                             1195.60  1341.08  1546.20  1564.92  1602.52
                             1610.65  1759.87  1858.40  2231.01  2338.53
                             2359.60  2377.25  2832.96  3114.99  3806.18
                             3823.35  5195.70  5199.43  5342.57  5344.08

 Zero-point correction=                           0.099456 (Hartree/Particle)
 Thermal correction to Energy=                    0.105765
 Thermal correction to Enthalpy=                  0.106709
 Thermal correction to Gibbs Free Energy=         0.071142
 Sum of electronic and zero-point Energies=           -163.979745
 Sum of electronic and thermal Energies=              -163.973437
 Sum of electronic and thermal Enthalpies=            -163.972492
 Sum of electronic and thermal Free Energies=         -164.008060

                     E (Thermal)             CV                S
                      KCal/Mol        Cal/Mol-Kelvin    Cal/Mol-Kelvin
 Total                   66.368             22.321             74.858
 Electronic               0.000              0.000              0.000
 Translational            0.889              2.981             38.099
 Rotational               0.889              2.981             24.715
 Vibrational             64.591             16.360             12.044
 Vibration     1          0.606              1.942              3.279
 Vibration     2          0.644              1.819              2.008
 Vibration     3          0.696              1.663              1.386
 Vibration     4          0.731              1.563              1.140
 Vibration     5          0.733              1.559              1.131
 Vibration     6          0.783              1.427              0.892
 Vibration     7          0.838              1.290              0.705

                           ! Non-Optimized Parameters !
 Normal termination of Gaussian 16 at Fri Jul  3 18:40:46 2020.
