 Gaussian 16, Revision A.03,
 Gaussian 16:  EM64L-G16RevA.03 25-Dec-2016

 ------------------------------------------------
 #opt freq ub3lyp/6-31G(d,p) scf=(maxcycles=1024)
 ------------------------------------------------

 ---------------
 something title
 ---------------
 Symbolic Z-matrix:
 Charge =  0 Multiplicity = 1

 SCF Done:  E(UB3LYP) =  -164.078610081     A.U. after   12 cycles
 SCF Done:  E(UB3LYP) =  -164.078773577     A.U. after    8 cycles
 SCF Done:  E(UB3LYP) =  -164.078780015     A.U. after    7 cycles
 SCF Done:  E(UB3LYP) =  -164.078786911     A.U. after    8 cycles
 SCF Done:  E(UB3LYP) =  -164.078790584     A.U. after    7 cycles
 SCF Done:  E(UB3LYP) =  -164.078800910     A.U. after    8 cycles
 SCF Done:  E(UB3LYP) =  -164.078819450     A.U. after    9 cycles
 SCF Done:  E(UB3LYP) =  -164.078875608     A.U. after   12 cycles
 SCF Done:  E(UB3LYP) =  -164.078878024     A.U. after   10 cycles
 SCF Done:  E(UB3LYP) =  -164.068756215     A.U. after   11 cycles
 SCF Done:  E(UB3LYP) =  -164.078261639     A.U. after   11 cycles
 SCF Done:  E(UB3LYP) =  -164.079126894     A.U. after    9 cycles
 SCF Done:  E(UB3LYP) =  -164.079083169     A.U. after    9 cycles
 SCF Done:  E(UB3LYP) =  -164.079163421     A.U. after   10 cycles
 SCF Done:  E(UB3LYP) =  -164.079179636     A.U. after    8 cycles
 SCF Done:  E(UB3LYP) =  -164.079191795     A.U. after    9 cycles
 SCF Done:  E(UB3LYP) =  -164.079194392     A.U. after    7 cycles
 SCF Done:  E(UB3LYP) =  -164.079199540     A.U. after    7 cycles
 SCF Done:  E(UB3LYP) =  -164.079200954     A.U. after    7 cycles
 Optimization completed.
    -- Stationary point found.
 Normal termination of Gaussian 16 at Fri Jul  3 18:36:46 2020.

 ----------------------------------------------------------------------
 #N Geom=AllCheck Guess=TCheck SCRF=Check GenChk UB3LYP/6-31G(d,p) Freq
 ----------------------------------------------------------------------

 Structure from the checkpoint file:  "/scratch/1311840/Gau-8904.chk"
 ---------------
 something title
 ---------------
 Charge =  0 Multiplicity = 1

                         Standard orientation:
 ---------------------------------------------------------------------
 Center     Atomic      Atomic             Coordinates (Angstroms)
 Number     Number       Type             X           Y           Z
 ---------------------------------------------------------------------
      1          7           0       -1.590138   -0.575485   -0.030594
      2          5           0       -0.907603    0.690438    0.004560
      3          7           0        1.590137   -0.575485    0.030594
      4          5           0        0.907603    0.690438   -0.004561
      5          1           0        2.596987   -0.587543    0.009616
      6          1           0       -1.518774    1.709699   -0.100689
      7          1           0        0.047272    0.858928   -0.971143
      8          1           0       -1.188234   -1.404880    0.380249
      9          1           0       -2.596987   -0.587543   -0.009611
     10          1           0        1.188236   -1.404879   -0.380253
     11          1           0       -0.047272    0.858929    0.971143
     12          1           0        1.518774    1.709699    0.100689
 ---------------------------------------------------------------------

 SCF Done:  E(UB3LYP) =  -164.079200954     A.U. after    1 cycles

 The electronic state is 1-A.
 Alpha  occ. eigenvalues --  -14.30416 -14.30416  -6.75284  -6.75264  -0.84742
 Alpha  occ. eigenvalues --   -0.83587  -0.62000  -0.49516  -0.48637  -0.46005
 Alpha  occ. eigenvalues --   -0.43124  -0.40082  -0.34865  -0.33390  -0.26701
 Alpha  occ. eigenvalues --   -0.22420
 Alpha virt. eigenvalues --    0.04554   0.06448   0.10199   0.12227   0.15059
 Alpha virt. eigenvalues --    0.16472   0.17900   0.21164   0.23694   0.25902
 Alpha virt. eigenvalues --    0.29175   0.36619   0.40045   0.44534   0.47899

  Beta  occ. eigenvalues --  -14.30416 -14.30416  -6.75284  -6.75264  -0.84742
  Beta  occ. eigenvalues --   -0.83587  -0.62000  -0.49516  -0.48637  -0.46005
  Beta  occ. eigenvalues --   -0.43124  -0.40082  -0.34865  -0.33390  -0.26701
  Beta  occ. eigenvalues --   -0.22420
  Beta virt. eigenvalues --    0.04554   0.06448   0.10199   0.12227   0.15059
  Beta virt. eigenvalues --    0.16472   0.17900   0.21164   0.23694   0.25902
  Beta virt. eigenvalues --    0.29175   0.36619   0.40045   0.44534   0.47899

 Mulliken charges and spin densities:
               1          2
     1  N   -0.639196   0.000000
     2  B    0.206742   0.000000
     3  N   -0.639196  -0.000000
     4  B    0.206741   0.000000
     5  H    0.249708  -0.000000
     6  H   -0.058623  -0.000000
     7  H    0.000558  -0.000000
     8  H    0.240811   0.000000
     9  H    0.249708  -0.000000
    10  H    0.240811   0.000000
    11  H    0.000558  -0.000000
    12  H   -0.058623  -0.000000
 Sum of Mulliken charges =  -0.00000  -0.00000

 Dipole moment (field-independent basis, Debye):
    X=              0.0000    Y=             -1.8008    Z=              0.0000  Tot=              1.8008
 Quadrupole moment (field-independent basis, Debye-Ang):
   XX=            -22.6380   YY=            -26.4104   ZZ=            -28.6668
   XY=             -0.0000   XZ=             -1.6284   YZ=              0.0000

  Exact polarizability:  54.731   0.000  42.635   0.749   0.000  27.546
 Approx polarizability:  71.126   0.000  57.072   1.636   0.000  40.082

                      1                      2                      3
                      A                      A                      A
 Frequencies --    109.0540               214.2234               307.0965
 Red. masses --      2.7694                 1.2015                 1.2413
 Frc consts  --      0.0194                 0.0325                 0.0690
 IR Inten    --      1.3582                18.2376               356.5145

                      4                      5                      6
                      A                      A                      A
 Frequencies --    356.5769               358.8034               420.9809
 Red. masses --      1.0604                 1.3178                 2.8447
 Frc consts  --      0.0794                 0.1000                 0.2970
 IR Inten    --      7.4551                48.8063                28.1290

                      7                      8                      9
                      A                      A                      A
 Frequencies --    482.0040               651.5792               738.4521
 Red. masses --      2.4471                 2.6468                 1.2429
 Frc consts  --      0.3350                 0.6621                 0.3993
 IR Inten    --      3.0929                 3.8732                 1.1017

                     10                     11                     12
                      A                      A                      A
 Frequencies --    789.8499               830.6963               932.3983
 Red. masses --      1.0880                 1.1310                 1.2666
 Frc consts  --      0.3999                 0.4598                 0.6488
 IR Inten    --      0.3973                 6.4226                17.9605

                     13                     14                     15
                      A                      A                      A
 Frequencies --   1074.9861              1087.5216              1114.0708
 Red. masses --      1.2693                 1.2697                 1.2530
 Frc consts  --      0.8642                 0.8848                 0.9163
 IR Inten    --      8.6277                 0.0269                 5.1498

                     16                     17                     18
                      A                      A                      A
 Frequencies --   1119.6395              1223.5413              1291.7216
 Red. masses --      1.5362                 2.2928                 2.5356
 Frc consts  --      1.1346                 2.0223                 2.4927
 IR Inten    --     13.9039               401.9144                89.7025

                     19                     20                     21
                      A                      A                      A
 Frequencies --   1551.6033              1625.3955              1639.9793
 Red. masses --      1.0798                 1.1743                 1.1496
 Frc consts  --      1.5317                 1.8280                 1.8217
 IR Inten    --    489.3651                48.6496                83.4790

                     22                     23                     24
                      A                      A                      A
 Frequencies --   1652.6820              1967.9563              2164.4483
 Red. masses --      1.0214                 1.1148                 1.0233
 Frc consts  --      1.6437                 2.5437                 2.8244
 IR Inten    --      0.0263               151.9942                 2.9694

                     25                     26                     27
                      A                      A                      A
 Frequencies --   2645.0841              2657.0323              3610.5655
 Red. masses --      1.0939                 1.0955                 1.0499
 Frc consts  --      4.5092                 4.5566                 8.0640
 IR Inten    --     48.3632               143.6932                17.5211

                     28                     29                     30
                      A                      A                      A
 Frequencies --   3613.1544              3712.9339              3713.9701
 Red. masses --      1.0502                 1.0960                 1.0962
 Frc consts  --      8.0780                 8.9024                 8.9091
 IR Inten    --     11.3895                33.5483                 1.7779

 - Thermochemistry -
 -------------------
 Temperature   298.150 Kelvin.  Pressure   1.00000 Atm.
 Atom     1 has atomic number  7 and mass  14.00307

 Molecular mass:    58.08736 amu.
 Principal axes and moments of inertia in atomic units:
                           1         2         3
     Eigenvalues --   121.62910 400.98088 506.63953
           X            0.99998  -0.00000  -0.00581
           Y            0.00000   1.00000   0.00000
           Z            0.00581  -0.00000   0.99998
 This molecule is an asymmetric top.
 Rotational symmetry number  1.
 Rotational temperatures (Kelvin)      0.71212     0.21601     0.17096
 Rotational constants (GHZ):          14.83807     4.50082     3.56218
 Zero-point vibrational energy     261132.8 (Joules/Mol)
                                   62.41224 (Kcal/Mol)
 Warning -- explicit consideration of   7 degrees of freedom as
           vibrations may cause significant error
 Vibrational temperatures:    156.90   308.22   441.84   513.03   516.24
          (Kelvin)            605.70   693.50   937.48  1062.47  1136.42
                             1195.19  1341.51  1546.67  1564.70  1602.90
                             1610.91  1760.40  1858.50  2232.41  2338.58
                             2359.56  2377.84  2831.45  3114.16  3805.69
                             3822.88  5194.80  5198.52  5342.08  5343.57

 Zero-point correction=                           0.099460 (Hartree/Particle)
 Thermal correction to Energy=                    0.105765
 Thermal correction to Enthalpy=                  0.106709
 Thermal correction to Gibbs Free Energy=         0.071147
 Sum of electronic and zero-point Energies=           -163.979741
 Sum of electronic and thermal Energies=              -163.973436
 Sum of electronic and thermal Enthalpies=            -163.972492
 Sum of electronic and thermal Free Energies=         -164.008054

                     E (Thermal)             CV                S
                      KCal/Mol        Cal/Mol-Kelvin    Cal/Mol-Kelvin
 Total                   66.368             22.313             74.847
 Electronic               0.000              0.000              0.000
 Translational            0.889              2.981             38.099
 Rotational               0.889              2.981             24.717
 Vibrational             64.591             16.351             12.032
 Vibration     1          0.606              1.942              3.286
 Vibration     2          0.644              1.819              2.007
 Vibration     3          0.697              1.660              1.378
 Vibration     4          0.732              1.562              1.137
 Vibration     5          0.734              1.557              1.127
 Vibration     6          0.783              1.425              0.889
 Vibration     7          0.838              1.290              0.705

                           ! Non-Optimized Parameters !
 Normal termination of Gaussian 16 at Fri Jul  3 18:39:29 2020.
