 Gaussian 16, Revision A.03,
 Gaussian 16:  EM64L-G16RevA.03 25-Dec-2016

 -------------------------------------------------
 # opt freq ub3lyp/6-31G(d,p) scf=(maxcycles=1024)
 -------------------------------------------------

 ---------------
 something title
 ---------------
 Symbolic Z-matrix:
 Charge =  0 Multiplicity = 1

 SCF Done:  E(UB3LYP) =  -164.078760183     A.U. after   12 cycles
 SCF Done:  E(UB3LYP) =  -164.078759967     A.U. after    9 cycles
 SCF Done:  E(UB3LYP) =  -164.078764633     A.U. after    9 cycles
 SCF Done:  E(UB3LYP) =  -164.078780361     A.U. after    8 cycles
 SCF Done:  E(UB3LYP) =  -164.078812053     A.U. after   10 cycles
 SCF Done:  E(UB3LYP) =  -164.078893704     A.U. after   11 cycles
 SCF Done:  E(UB3LYP) =  -164.078928822     A.U. after   10 cycles
 SCF Done:  E(UB3LYP) =  -164.079041254     A.U. after   11 cycles
 SCF Done:  E(UB3LYP) =  -164.078950634     A.U. after   11 cycles
 SCF Done:  E(UB3LYP) =  -164.079085288     A.U. after   11 cycles
 SCF Done:  E(UB3LYP) =  -164.079096632     A.U. after    7 cycles
 SCF Done:  E(UB3LYP) =  -164.079108039     A.U. after   10 cycles
 SCF Done:  E(UB3LYP) =  -164.079130067     A.U. after   10 cycles
 SCF Done:  E(UB3LYP) =  -164.079157401     A.U. after    9 cycles
 SCF Done:  E(UB3LYP) =  -164.079175869     A.U. after    9 cycles
 SCF Done:  E(UB3LYP) =  -164.079194716     A.U. after    9 cycles
 SCF Done:  E(UB3LYP) =  -164.079197457     A.U. after    7 cycles
 SCF Done:  E(UB3LYP) =  -164.079199735     A.U. after    7 cycles
 SCF Done:  E(UB3LYP) =  -164.079201226     A.U. after    8 cycles
 Optimization completed.
    -- Stationary point found.
 Normal termination of Gaussian 16 at Fri Jul  3 20:10:41 2020.

 ----------------------------------------------------------------------
 #N Geom=AllCheck Guess=TCheck SCRF=Check GenChk UB3LYP/6-31G(d,p) Freq
 ----------------------------------------------------------------------

 Structure from the checkpoint file:  "/scratch/1311852/Gau-23919.chk"
 ---------------
 something title
 ---------------
 Charge =  0 Multiplicity = 1

                         Standard orientation:
 ---------------------------------------------------------------------
 Center     Atomic      Atomic             Coordinates (Angstroms)
 Number     Number       Type             X           Y           Z
 ---------------------------------------------------------------------
      1          7           0        1.588659   -0.575686   -0.030248
      2          5           0        0.907418    0.690908    0.004855
      3          7           0       -1.588710   -0.575682    0.030300
      4          5           0       -0.907420    0.690895   -0.004842
      5          1           0       -2.595496   -0.588749    0.010738
      6          1           0        1.520464    1.708904   -0.101400
      7          1           0        0.047870    0.860202    0.971223
      8          1           0        1.186608   -1.405066    0.380404
      9          1           0        2.595561   -0.588872   -0.011462
     10          1           0       -1.186531   -1.405076   -0.380227
     11          1           0       -0.047657    0.860329   -0.971103
     12          1           0       -1.520450    1.708887    0.101400
 ---------------------------------------------------------------------

 SCF Done:  E(UB3LYP) =  -164.079201226     A.U. after    1 cycles

 The electronic state is 1-A.
 Alpha  occ. eigenvalues --  -14.30413 -14.30412  -6.75281  -6.75260  -0.84742
 Alpha  occ. eigenvalues --   -0.83582  -0.62000  -0.49520  -0.48640  -0.45999
 Alpha  occ. eigenvalues --   -0.43124  -0.40082  -0.34866  -0.33394  -0.26696
 Alpha  occ. eigenvalues --   -0.22418
 Alpha virt. eigenvalues --    0.04554   0.06451   0.10200   0.12233   0.15056
 Alpha virt. eigenvalues --    0.16489   0.17896   0.21155   0.23711   0.25900
 Alpha virt. eigenvalues --    0.29177   0.36626   0.40054   0.44551   0.47894

  Beta  occ. eigenvalues --  -14.30413 -14.30412  -6.75281  -6.75260  -0.84742
  Beta  occ. eigenvalues --   -0.83582  -0.62000  -0.49520  -0.48640  -0.45999
  Beta  occ. eigenvalues --   -0.43124  -0.40082  -0.34866  -0.33394  -0.26696
  Beta  occ. eigenvalues --   -0.22418
  Beta virt. eigenvalues --    0.04554   0.06451   0.10200   0.12233   0.15056
  Beta virt. eigenvalues --    0.16489   0.17896   0.21155   0.23711   0.25900
  Beta virt. eigenvalues --    0.29177   0.36626   0.40054   0.44551   0.47894

 Mulliken charges and spin densities:
               1          2
     1  N   -0.639181  -0.000000
     2  B    0.206714   0.000000
     3  N   -0.639142  -0.000000
     4  B    0.206759   0.000000
     5  H    0.249698   0.000000
     6  H   -0.058632  -0.000000
     7  H    0.000562  -0.000000
     8  H    0.240799  -0.000000
     9  H    0.249695   0.000000
    10  H    0.240794   0.000000
    11  H    0.000568  -0.000000
    12  H   -0.058634   0.000000
 Sum of Mulliken charges =  -0.00000  -0.00000

 Dipole moment (field-independent basis, Debye):
    X=             -0.0001    Y=             -1.8019    Z=             -0.0010  Tot=              1.8019
 Quadrupole moment (field-independent basis, Debye-Ang):
   XX=            -22.6423   YY=            -26.4036   ZZ=            -28.6655
   XY=             -0.0009   XZ=              1.6094   YZ=              0.0003

  Exact polarizability:  54.713  -0.000  42.639  -0.753  -0.001  27.544
 Approx polarizability:  71.101   0.000  57.082  -1.629  -0.002  40.078

                      1                      2                      3
                      A                      A                      A
 Frequencies --    109.4851               213.8190               305.8356
 Red. masses --      2.7672                 1.2034                 1.2427
 Frc consts  --      0.0195                 0.0324                 0.0685
 IR Inten    --      1.3632                18.8751               356.2863

                      4                      5                      6
                      A                      A                      A
 Frequencies --    356.5797               358.5675               420.5717
 Red. masses --      1.0611                 1.3102                 2.8636
 Frc consts  --      0.0795                 0.0992                 0.2984
 IR Inten    --      7.4319                48.0687                27.3759

                      7                      8                      9
                      A                      A                      A
 Frequencies --    481.8664               651.7950               738.8278
 Red. masses --      2.4474                 2.6344                 1.2424
 Frc consts  --      0.3348                 0.6594                 0.3996
 IR Inten    --      3.0733                 3.9318                 1.1324

                     10                     11                     12
                      A                      A                      A
 Frequencies --    789.6738               831.2546               932.2691
 Red. masses --      1.0882                 1.1320                 1.2663
 Frc consts  --      0.3998                 0.4609                 0.6485
 IR Inten    --      0.3937                 6.4640                17.9874

                     13                     14                     15
                      A                      A                      A
 Frequencies --   1074.7204              1087.6549              1113.8684
 Red. masses --      1.2673                 1.2698                 1.2555
 Frc consts  --      0.8625                 0.8850                 0.9178
 IR Inten    --      8.7438                 0.0247                 5.1749

                     16                     17                     18
                      A                      A                      A
 Frequencies --   1119.5781              1223.1867              1291.7022
 Red. masses --      1.5367                 2.2924                 2.5339
 Frc consts  --      1.1349                 2.0208                 2.4909
 IR Inten    --     13.8961               402.2656                89.8892

                     19                     20                     21
                      A                      A                      A
 Frequencies --   1549.5297              1625.3955              1640.0162
 Red. masses --      1.0804                 1.1744                 1.1492
 Frc consts  --      1.5284                 1.8280                 1.8212
 IR Inten    --    486.3293                48.7914                83.6753

                     22                     23                     24
                      A                      A                      A
 Frequencies --   1652.0720              1970.3586              2165.5656
 Red. masses --      1.0219                 1.1145                 1.0234
 Frc consts  --      1.6432                 2.5492                 2.8277
 IR Inten    --      0.0144               152.7831                 2.9917

                     25                     26                     27
                      A                      A                      A
 Frequencies --   2645.3172              2657.2573              3610.8881
 Red. masses --      1.0939                 1.0955                 1.0499
 Frc consts  --      4.5099                 4.5575                 8.0654
 IR Inten    --     48.6888               143.3871                17.4837

                     28                     29                     30
                      A                      A                      A
 Frequencies --   3613.5021              3713.1453              3714.4226
 Red. masses --      1.0502                 1.0961                 1.0962
 Frc consts  --      8.0796                 8.9038                 8.9109
 IR Inten    --     11.4493                30.6222                 4.7242

 - Thermochemistry -
 -------------------
 Temperature   298.150 Kelvin.  Pressure   1.00000 Atm.
 Atom     1 has atomic number  7 and mass  14.00307

 Molecular mass:    58.08736 amu.
 Principal axes and moments of inertia in atomic units:
                           1         2         3
     Eigenvalues --   121.71422 400.44697 506.18956
           X            0.99998  -0.00000   0.00572
           Y            0.00000   1.00000   0.00001
           Z           -0.00572  -0.00001   0.99998
 This molecule is an asymmetric top.
 Rotational symmetry number  1.
 Rotational temperatures (Kelvin)      0.71162     0.21629     0.17111
 Rotational constants (GHZ):          14.82769     4.50682     3.56535
 Zero-point vibrational energy     261137.2 (Joules/Mol)
                                   62.41328 (Kcal/Mol)
 Warning -- explicit consideration of   7 degrees of freedom as
           vibrations may cause significant error
 Vibrational temperatures:    157.52   307.64   440.03   513.04   515.90
          (Kelvin)            605.11   693.30   937.79  1063.01  1136.16
                             1195.99  1341.33  1546.28  1564.89  1602.61
                             1610.82  1759.89  1858.47  2229.43  2338.58
                             2359.62  2376.96  2834.91  3115.77  3806.02
                             3823.20  5195.26  5199.02  5342.39  5344.23

 Zero-point correction=                           0.099462 (Hartree/Particle)
 Thermal correction to Energy=                    0.105768
 Thermal correction to Enthalpy=                  0.106712
 Thermal correction to Gibbs Free Energy=         0.071149
 Sum of electronic and zero-point Energies=           -163.979739
 Sum of electronic and thermal Energies=              -163.973433
 Sum of electronic and thermal Enthalpies=            -163.972489
 Sum of electronic and thermal Free Energies=         -164.008053

                     E (Thermal)             CV                S
                      KCal/Mol        Cal/Mol-Kelvin    Cal/Mol-Kelvin
 Total                   66.371             22.317             74.850
 Electronic               0.000              0.000              0.000
 Translational            0.889              2.981             38.099
 Rotational               0.889              2.981             24.715
 Vibrational             64.593             16.355             12.036
 Vibration     1          0.606              1.942              3.278
 Vibration     2          0.644              1.820              2.011
 Vibration     3          0.696              1.663              1.385
 Vibration     4          0.732              1.562              1.137
 Vibration     5          0.733              1.558              1.128
 Vibration     6          0.783              1.426              0.890
 Vibration     7          0.838              1.290              0.705

 Optimization completed.
    -- Stationary point found.
 Normal termination of Gaussian 16 at Fri Jul  3 20:13:23 2020.
