 Gaussian 16, Revision A.03,
 Gaussian 16:  EM64L-G16RevA.03 25-Dec-2016

 -------------------------------------------------
 # opt freq ub3lyp/6-31G(d,p) scf=(maxcycles=1024)
 -------------------------------------------------

 ---------------
 something title
 ---------------
 Symbolic Z-matrix:
 Charge =  0 Multiplicity = 1

 SCF Done:  E(UB3LYP) =  -164.078747304     A.U. after   12 cycles
 Optimization completed.
    -- Stationary point found.
 Normal termination of Gaussian 16 at Fri Jul  3 18:41:56 2020.

 ----------------------------------------------------------------------
 #N Geom=AllCheck Guess=TCheck SCRF=Check GenChk UB3LYP/6-31G(d,p) Freq
 ----------------------------------------------------------------------

 Structure from the checkpoint file:  "/scratch/1311843/Gau-11032.chk"
 ---------------
 something title
 ---------------
 Charge =  0 Multiplicity = 1

                         Standard orientation:
 ---------------------------------------------------------------------
 Center     Atomic      Atomic             Coordinates (Angstroms)
 Number     Number       Type             X           Y           Z
 ---------------------------------------------------------------------
      1          7           0        1.668900   -0.547958    0.043084
      2          5           0        0.912625    0.670042    0.023338
      3          7           0       -1.668900   -0.547958   -0.043083
      4          5           0       -0.912625    0.670042   -0.023339
      5          1           0       -2.628710   -0.555358    0.258490
      6          1           0        1.485681    1.711422   -0.080056
      7          1           0        0.039066    0.799423    0.976270
      8          1           0        1.270277   -1.469988    0.118477
      9          1           0        2.628710   -0.555358   -0.258499
     10          1           0       -1.270277   -1.469988   -0.118474
     11          1           0       -0.039066    0.799421   -0.976262
     12          1           0       -1.485681    1.711422    0.080053
 ---------------------------------------------------------------------

 SCF Done:  E(UB3LYP) =  -164.078747304     A.U. after    1 cycles

 The electronic state is 1-A.
 Alpha  occ. eigenvalues --  -14.30487 -14.30487  -6.75197  -6.75178  -0.84608
 Alpha  occ. eigenvalues --   -0.83679  -0.61766  -0.49641  -0.49056  -0.46664
 Alpha  occ. eigenvalues --   -0.43384  -0.39753  -0.34439  -0.33349  -0.26654
 Alpha  occ. eigenvalues --   -0.22170
 Alpha virt. eigenvalues --    0.05108   0.05819   0.10736   0.12011   0.13786
 Alpha virt. eigenvalues --    0.16695   0.18418   0.20863   0.24021   0.28064
 Alpha virt. eigenvalues --    0.28889   0.36459   0.39390   0.43904   0.48229

  Beta  occ. eigenvalues --  -14.30487 -14.30487  -6.75197  -6.75178  -0.84608
  Beta  occ. eigenvalues --   -0.83679  -0.61766  -0.49641  -0.49056  -0.46664
  Beta  occ. eigenvalues --   -0.43384  -0.39753  -0.34439  -0.33349  -0.26654
  Beta  occ. eigenvalues --   -0.22170
  Beta virt. eigenvalues --    0.05108   0.05819   0.10736   0.12011   0.13786
  Beta virt. eigenvalues --    0.16695   0.18418   0.20863   0.24021   0.28064
  Beta virt. eigenvalues --    0.28889   0.36459   0.39390   0.43904   0.48229

 Mulliken charges and spin densities:
               1          2
     1  N   -0.632899  -0.000000
     2  B    0.209463   0.000000
     3  N   -0.632899  -0.000000
     4  B    0.209463   0.000000
     5  H    0.250365   0.000000
     6  H   -0.061213  -0.000000
     7  H   -0.002435  -0.000000
     8  H    0.236720   0.000000
     9  H    0.250365   0.000000
    10  H    0.236720   0.000000
    11  H   -0.002434   0.000000
    12  H   -0.061213  -0.000000
 Sum of Mulliken charges =   0.00000   0.00000

 Dipole moment (field-independent basis, Debye):
    X=             -0.0000    Y=             -2.2510    Z=             -0.0000  Tot=              2.2510
 Quadrupole moment (field-independent basis, Debye-Ang):
   XX=            -23.4006   YY=            -25.5833   ZZ=            -28.9273
   XY=              0.0000   XZ=             -2.5936   YZ=             -0.0000

  Exact polarizability:  55.569  -0.000  42.772  -0.958   0.000  27.217
 Approx polarizability:  72.417   0.000  56.853  -0.162   0.000  39.658

 ******    1 imaginary frequencies (negative Signs) ******

                      1                      2                      3
                      A                      A                      A
 Frequencies --    -89.2139               147.3016               164.8855
 Red. masses --      1.1605                 2.5457                 1.2091
 Frc consts  --      0.0054                 0.0325                 0.0194
 IR Inten    --      9.1193                 3.0222                 0.0315

                      4                      5                      6
                      A                      A                      A
 Frequencies --    180.7344               372.1853               416.5802
 Red. masses --      1.2038                 4.6071                 1.0968
 Frc consts  --      0.0232                 0.3760                 0.1121
 IR Inten    --    459.8420                 0.0975                33.2158

                      7                      8                      9
                      A                      A                      A
 Frequencies --    473.5717               639.0671               719.5520
 Red. masses --      2.2413                 2.6749                 1.2461
 Frc consts  --      0.2962                 0.6436                 0.3801
 IR Inten    --      3.4149                 1.6163                 2.6146

                     10                     11                     12
                      A                      A                      A
 Frequencies --    763.7138               853.5326               928.1280
 Red. masses --      1.0698                 1.1009                 1.3042
 Frc consts  --      0.3676                 0.4726                 0.6619
 IR Inten    --      0.7216                 3.8323                25.5482

                     13                     14                     15
                      A                      A                      A
 Frequencies --   1068.7833              1076.8909              1104.4187
 Red. masses --      1.3242                 1.4877                 1.1030
 Frc consts  --      0.8912                 1.0165                 0.7926
 IR Inten    --      1.9428                 6.1143                13.5261

                     16                     17                     18
                      A                      A                      A
 Frequencies --   1120.6836              1228.2479              1295.5984
 Red. masses --      1.4235                 2.3164                 2.7562
 Frc consts  --      1.0534                 2.0589                 2.7259
 IR Inten    --     11.8280               457.1710                84.7776

                     19                     20                     21
                      A                      A                      A
 Frequencies --   1533.9209              1622.6101              1626.4064
 Red. masses --      1.0836                 1.0671                 1.1802
 Frc consts  --      1.5021                 1.6554                 1.8393
 IR Inten    --    444.0418                52.2646                57.6436

                     22                     23                     24
                      A                      A                      A
 Frequencies --   1654.6024              1995.0360              2170.5180
 Red. masses --      1.1059                 1.1134                 1.0245
 Frc consts  --      1.7839                 2.6110                 2.8437
 IR Inten    --     44.8506               199.2542                 1.8675

                     25                     26                     27
                      A                      A                      A
 Frequencies --   2644.9949              2656.9665              3628.0826
 Red. masses --      1.0938                 1.0950                 1.0493
 Frc consts  --      4.5086                 4.5543                 8.1377
 IR Inten    --     43.1263               151.2333                26.4261

                     28                     29                     30
                      A                      A                      A
 Frequencies --   3630.9865              3730.3034              3730.8682
 Red. masses --      1.0497                 1.0973                 1.0973
 Frc consts  --      8.1538                 8.9962                 8.9990
 IR Inten    --     11.5616                32.0706                 1.7476

 - Thermochemistry -
 -------------------
 Temperature   298.150 Kelvin.  Pressure   1.00000 Atm.
 Atom     1 has atomic number  7 and mass  14.00307

 Molecular mass:    58.08736 amu.
 Principal axes and moments of inertia in atomic units:
                           1         2         3
     Eigenvalues --   116.44690 429.01488 530.12468
           X            0.99994  -0.00000  -0.01082
           Y            0.00000   1.00000   0.00000
           Z            0.01082  -0.00000   0.99994
 This molecule is an asymmetric top.
 Rotational symmetry number  1.
 Rotational temperatures (Kelvin)      0.74381     0.20189     0.16338
 Rotational constants (GHZ):          15.49840     4.20671     3.40437
    1 imaginary frequencies ignored.
 Zero-point vibrational energy     258268.8 (Joules/Mol)
                                   61.72772 (Kcal/Mol)
 Warning -- explicit consideration of   6 degrees of freedom as
           vibrations may cause significant error
 Vibrational temperatures:    211.93   237.23   260.04   535.49   599.37
          (Kelvin)            681.36   919.47  1035.27  1098.81  1228.04
                             1335.37  1537.74  1549.41  1589.01  1612.41
                             1767.17  1864.08  2206.97  2334.57  2340.04
                             2380.60  2870.41  3122.89  3805.56  3822.78
                             5220.00  5224.18  5367.07  5367.89

 Zero-point correction=                           0.098369 (Hartree/Particle)
 Thermal correction to Energy=                    0.104525
 Thermal correction to Enthalpy=                  0.105469
 Thermal correction to Gibbs Free Energy=         0.069994
 Sum of electronic and zero-point Energies=           -163.980378
 Sum of electronic and thermal Energies=              -163.974222
 Sum of electronic and thermal Enthalpies=            -163.973278
 Sum of electronic and thermal Free Energies=         -164.008754

                     E (Thermal)             CV                S
                      KCal/Mol        Cal/Mol-Kelvin    Cal/Mol-Kelvin
 Total                   65.590             21.086             74.664
 Electronic               0.000              0.000              0.000
 Translational            0.889              2.981             38.099
 Rotational               0.889              2.981             24.786
 Vibrational             63.813             15.124             11.780
 Vibration     1          0.617              1.906              2.707
 Vibration     2          0.623              1.886              2.493
 Vibration     3          0.630              1.866              2.321
 Vibration     4          0.744              1.529              1.071
 Vibration     5          0.780              1.434              0.904
 Vibration     6          0.830              1.309              0.728

                           ! Non-Optimized Parameters !
 Normal termination of Gaussian 16 at Fri Jul  3 18:44:36 2020.
