 Gaussian 16, Revision A.03,
 Gaussian 16:  EM64L-G16RevA.03 25-Dec-2016

 ----------------------------------------------------------------------
 #irc=(forward calcfc, maxpoint=100, stepsize=5) ub3lyp/6-31G(d,p) scf=
 (maxcycles=1024)
 ----------------------------------------------------------------------

 ---------------
 something title
 ---------------
 Symbolic Z-matrix:
 Charge =  0 Multiplicity = 1

 SCF Done:  E(UB3LYP) =  -164.078746808     A.U. after   12 cycles
 SCF Done:  E(UB3LYP) =  -164.078747308     A.U. after    8 cycles

                          Input orientation:
 ---------------------------------------------------------------------
 Center     Atomic      Atomic             Coordinates (Angstroms)
 Number     Number       Type             X           Y           Z
 ---------------------------------------------------------------------
      1          7           0       -1.668886   -0.554602   -0.043469
      2          5           0       -0.912623    0.663403   -0.023547
      3          7           0        1.668886   -0.554602    0.043468
      4          5           0        0.912623    0.663403    0.023547
      5          1           0        2.628765   -0.562000   -0.257883
      6          1           0       -1.485701    1.704776    0.079707
      7          1           0       -0.038843    0.792782   -0.976275
      8          1           0       -1.270248   -1.476632   -0.118770
      9          1           0       -2.628766   -0.562000    0.257891
     10          1           0        1.270248   -1.476632    0.118769
     11          1           0        0.038843    0.792782    0.976274
     12          1           0        1.485701    1.704776   -0.079708
 ---------------------------------------------------------------------

 Alpha  occ. eigenvalues --  -14.30487 -14.30487  -6.75197  -6.75178  -0.84608
 Alpha  occ. eigenvalues --   -0.83679  -0.61766  -0.49641  -0.49056  -0.46664
 Alpha  occ. eigenvalues --   -0.43384  -0.39753  -0.34439  -0.33349  -0.26654
 Alpha  occ. eigenvalues --   -0.22170
 Alpha virt. eigenvalues --    0.05108   0.05819   0.10736   0.12011   0.13786
 Alpha virt. eigenvalues --    0.16695   0.18418   0.20863   0.24021   0.28064
 Alpha virt. eigenvalues --    0.28888   0.36459   0.39390   0.43904   0.48229

  Beta  occ. eigenvalues --  -14.30487 -14.30487  -6.75197  -6.75178  -0.84608
  Beta  occ. eigenvalues --   -0.83679  -0.61766  -0.49641  -0.49056  -0.46664
  Beta  occ. eigenvalues --   -0.43384  -0.39753  -0.34439  -0.33349  -0.26654
  Beta  occ. eigenvalues --   -0.22170
  Beta virt. eigenvalues --    0.05108   0.05819   0.10736   0.12011   0.13786
  Beta virt. eigenvalues --    0.16695   0.18418   0.20863   0.24021   0.28064
  Beta virt. eigenvalues --    0.28888   0.36459   0.39390   0.43904   0.48229

 Mulliken charges and spin densities:
               1          2
     1  N   -0.632901   0.000000
     2  B    0.209465  -0.000000
     3  N   -0.632900  -0.000000
     4  B    0.209465  -0.000000
     5  H    0.250364   0.000000
     6  H   -0.061212   0.000000
     7  H   -0.002436   0.000000
     8  H    0.236720   0.000000
     9  H    0.250364   0.000000
    10  H    0.236720   0.000000
    11  H   -0.002436   0.000000
    12  H   -0.061212  -0.000000
 Sum of Mulliken charges =  -0.00000   0.00000

 Dipole moment (field-independent basis, Debye):
    X=              0.0000    Y=             -2.2509    Z=              0.0000  Tot=              2.2509
 Quadrupole moment (field-independent basis, Debye-Ang):
   XX=            -23.3994   YY=            -25.5533   ZZ=            -28.9285
   XY=             -0.0000   XZ=             -2.5923   YZ=             -0.0000

  Exact polarizability:   0.000   0.000   0.000   0.000   0.000   0.000
 Approx polarizability:  72.417   0.000  56.853  -0.155   0.000  39.658

 Normal termination of Gaussian 16 at Fri Jul  3 18:31:06 2020.
