 Gaussian 16, Revision A.03,
 Gaussian 16:  EM64L-G16RevA.03 25-Dec-2016

 --------------------------------------------
 #freq ub3lyp/6-31G(d,p) scf=(maxcycles=1024)
 --------------------------------------------

 ---------------
 something title
 ---------------
 Symbolic Z-matrix:
 Charge =  0 Multiplicity = 1

                         Standard orientation:
 ---------------------------------------------------------------------
 Center     Atomic      Atomic             Coordinates (Angstroms)
 Number     Number       Type             X           Y           Z
 ---------------------------------------------------------------------
      1          7           0       -1.722071   -0.556534    0.078545
      2          5           0       -1.141782    0.654956   -0.207522
      3          7           0        1.811527   -0.492166   -0.132565
      4          5           0        1.049391    0.700667    0.218492
      5          1           0        1.542028   -1.061271   -0.876500
      6          1           0       -1.773894    1.638845   -0.236708
      7          1           0       -0.066091    0.699823   -0.731855
      8          1           0       -1.196755   -1.413973    0.251873
      9          1           0       -2.724869   -0.672344    0.103775
     10          1           0        2.103822   -1.082975    0.600686
     11          1           0        0.452616    0.707533    1.258000
     12          1           0        1.498900    1.747150   -0.045973
 ---------------------------------------------------------------------

 SCF Done:  E(UB3LYP) =  -164.045116224     A.U. after   13 cycles

 The electronic state is 1-A.
 Alpha  occ. eigenvalues --  -14.35329 -14.27278  -6.77296  -6.72592  -0.88630
 Alpha  occ. eigenvalues --   -0.82947  -0.58076  -0.53088  -0.49854  -0.46706
 Alpha  occ. eigenvalues --   -0.42556  -0.37046  -0.35791  -0.33133  -0.29346
 Alpha  occ. eigenvalues --   -0.20509
 Alpha virt. eigenvalues --   -0.01194   0.05817   0.07544   0.11126   0.13254
 Alpha virt. eigenvalues --    0.17494   0.20233   0.21104   0.22565   0.23845
 Alpha virt. eigenvalues --    0.29234   0.30678   0.42085   0.44350   0.47289

  Beta  occ. eigenvalues --  -14.35329 -14.27278  -6.77296  -6.72592  -0.88630
  Beta  occ. eigenvalues --   -0.82947  -0.58076  -0.53088  -0.49854  -0.46706
  Beta  occ. eigenvalues --   -0.42556  -0.37046  -0.35791  -0.33133  -0.29346
  Beta  occ. eigenvalues --   -0.20509
  Beta virt. eigenvalues --   -0.01194   0.05817   0.07544   0.11126   0.13254
  Beta virt. eigenvalues --    0.17494   0.20233   0.21104   0.22565   0.23845
  Beta virt. eigenvalues --    0.29234   0.30678   0.42085   0.44350   0.47289

 Mulliken charges and spin densities:
               1          2
     1  N   -0.539471   0.000000
     2  B    0.232085   0.000000
     3  N   -0.641886  -0.000000
     4  B    0.209611   0.000000
     5  H    0.226992   0.000000
     6  H   -0.046870   0.000000
     7  H   -0.026327  -0.000000
     8  H    0.267993   0.000000
     9  H    0.271976  -0.000000
    10  H    0.229517  -0.000000
    11  H   -0.087238   0.000000
    12  H   -0.096382  -0.000000
 Sum of Mulliken charges =   0.00000   0.00000

 Dipole moment (field-independent basis, Debye):
    X=             -3.0648    Y=             -3.1142    Z=             -0.1570  Tot=              4.3722
 Quadrupole moment (field-independent basis, Debye-Ang):
   XX=            -26.7497   YY=            -25.9918   ZZ=            -27.4949
   XY=             -0.5944   XZ=              0.9614   YZ=             -0.7742

  Exact polarizability:  53.157   1.003  43.264   0.819  -1.123  30.874
 Approx polarizability:  67.268   2.035  57.343   1.859  -1.823  43.715

 ******    5 imaginary frequencies (negative Signs) ******

                      1                      2                      3
                      A                      A                      A
 Frequencies --   -875.8406              -442.3230              -347.6012
 Red. masses --      1.0811                 1.2629                 1.8242
 Frc consts  --      0.4886                 0.1456                 0.1299
 IR Inten    --     92.4823               154.3388                 9.4045

                      4                      5                      6
                      A                      A                      A
 Frequencies --   -159.7586              -144.9570               327.6799
 Red. masses --      1.9117                 2.3365                 1.9133
 Frc consts  --      0.0287                 0.0289                 0.1210
 IR Inten    --      3.3771                 4.4290                 0.5596

                      7                      8                      9
                      A                      A                      A
 Frequencies --    461.6457               534.4060               613.9880
 Red. masses --      1.1946                 1.4336                 1.2443
 Frc consts  --      0.1500                 0.2412                 0.2764
 IR Inten    --     50.7668                37.9712                63.9113

                     10                     11                     12
                      A                      A                      A
 Frequencies --    636.0564               734.0316               857.3609
 Red. masses --      1.4322                 1.1651                 1.0990
 Frc consts  --      0.3414                 0.3699                 0.4760
 IR Inten    --    118.8843                 4.9412                 6.4677

                     13                     14                     15
                      A                      A                      A
 Frequencies --    946.5069              1003.4760              1051.9963
 Red. masses --      1.2336                 1.3414                 1.3197
 Frc consts  --      0.6511                 0.7958                 0.8605
 IR Inten    --    101.6460               194.0067               205.6588

                     16                     17                     18
                      A                      A                      A
 Frequencies --   1114.6554              1130.4328              1237.5495
 Red. masses --      1.9022                 1.2852                 1.4854
 Frc consts  --      1.3925                 0.9676                 1.3404
 IR Inten    --     15.1243                 3.3374                78.7576

                     19                     20                     21
                      A                      A                      A
 Frequencies --   1352.8931              1467.2108              1559.8276
 Red. masses --      1.9476                 1.2295                 1.1360
 Frc consts  --      2.1003                 1.5595                 1.6284
 IR Inten    --     50.0037                32.1192                49.4392

                     22                     23                     24
                      A                      A                      A
 Frequencies --   1657.0775              2551.4472              2583.0400
 Red. masses --      1.3488                 1.0744                 1.0811
 Frc consts  --      2.1822                 4.1207                 4.2500
 IR Inten    --    117.5239               128.6972               346.6833

                     25                     26                     27
                      A                      A                      A
 Frequencies --   2793.5578              2828.4115              3504.9813
 Red. masses --      1.0935                 1.1034                 1.0590
 Frc consts  --      5.0281                 5.2006                 7.6649
 IR Inten    --    148.8064               134.8961                24.9240

                     28                     29                     30
                      A                      A                      A
 Frequencies --   3667.6932              3908.4303              4083.1666
 Red. masses --      1.0889                 1.0625                 1.0815
 Frc consts  --      8.6300                 9.5623                10.6240
 IR Inten    --     47.2699                 6.5469                 7.5089

 - Thermochemistry -
 -------------------
 Temperature   298.150 Kelvin.  Pressure   1.00000 Atm.
 Atom     1 has atomic number  7 and mass  14.00307

 Molecular mass:    58.08736 amu.
 Principal axes and moments of inertia in atomic units:
                           1         2         3
     Eigenvalues --   121.94935 500.38081 588.52165
           X            0.99999  -0.00368  -0.00131
           Y            0.00367   0.99994  -0.01037
           Z            0.00135   0.01036   0.99995
 This molecule is an asymmetric top.
 Rotational symmetry number  1.
 Rotational temperatures (Kelvin)      0.71025     0.17310     0.14717
 Rotational constants (GHZ):          14.79910     3.60674     3.06657
    5 imaginary frequencies ignored.
 Zero-point vibrational energy     254849.6 (Joules/Mol)
                                   60.91051 (Kcal/Mol)
 Warning -- explicit consideration of   4 degrees of freedom as
           vibrations may cause significant error
 Vibrational temperatures:    471.46   664.21   768.89   883.39   915.14
          (Kelvin)           1056.11  1233.55  1361.81  1443.78  1513.59
                             1603.74  1626.44  1780.56  1946.51  2110.99
                             2244.24  2384.16  3670.96  3716.42  4019.31
                             4069.45  5042.89  5276.99  5623.36  5874.77

 Zero-point correction=                           0.097067 (Hartree/Particle)
 Thermal correction to Energy=                    0.101390
 Thermal correction to Enthalpy=                  0.102334
 Thermal correction to Gibbs Free Energy=         0.070247
 Sum of electronic and zero-point Energies=           -163.948049
 Sum of electronic and thermal Energies=              -163.943726
 Sum of electronic and thermal Enthalpies=            -163.942782
 Sum of electronic and thermal Free Energies=         -163.974869

                     E (Thermal)             CV                S
                      KCal/Mol        Cal/Mol-Kelvin    Cal/Mol-Kelvin
 Total                   63.623             15.532             67.533
 Electronic               0.000              0.000              0.000
 Translational            0.889              2.981             38.099
 Rotational               0.889              2.981             25.088
 Vibrational             61.846              9.570              4.346
 Vibration     1          0.711              1.620              1.271
 Vibration     2          0.819              1.335              0.761
 Vibration     3          0.889              1.174              0.577
 Vibration     4          0.973              1.002              0.426

 Normal termination of Gaussian 16 at Fri Jul  3 17:46:21 2020.
