 Gaussian 16, Revision A.03,
 Gaussian 16:  EM64L-G16RevA.03 25-Dec-2016

 -------------------------------------------------
 # opt freq ub3lyp/6-31G(d,p) scf=(maxcycles=1024)
 -------------------------------------------------

 ---------------
 something title
 ---------------
 Symbolic Z-matrix:
 Charge =  0 Multiplicity = 1

 SCF Done:  E(UB3LYP) =  -164.078747317     A.U. after   12 cycles
 Optimization completed.
    -- Stationary point found.
 Normal termination of Gaussian 16 at Fri Jul  3 18:41:56 2020.

 ----------------------------------------------------------------------
 #N Geom=AllCheck Guess=TCheck SCRF=Check GenChk UB3LYP/6-31G(d,p) Freq
 ----------------------------------------------------------------------

 Structure from the checkpoint file:  "/scratch/1311844/Gau-11030.chk"
 ---------------
 something title
 ---------------
 Charge =  0 Multiplicity = 1

                         Standard orientation:
 ---------------------------------------------------------------------
 Center     Atomic      Atomic             Coordinates (Angstroms)
 Number     Number       Type             X           Y           Z
 ---------------------------------------------------------------------
      1          7           0        1.671000   -0.547703    0.045292
      2          5           0        0.911295    0.668937    0.021837
      3          7           0       -1.670999   -0.547703   -0.045291
      4          5           0       -0.911295    0.668937   -0.021838
      5          1           0       -2.632018   -0.547983    0.253100
      6          1           0        1.483897    1.711617   -0.069953
      7          1           0        0.033858    0.797158    0.975977
      8          1           0        1.271051   -1.471553    0.084701
      9          1           0        2.632008   -0.547984   -0.253109
     10          1           0       -1.271051   -1.471553   -0.084699
     11          1           0       -0.033857    0.797156   -0.975968
     12          1           0       -1.483895    1.711617    0.069950
 ---------------------------------------------------------------------

 SCF Done:  E(UB3LYP) =  -164.078747317     A.U. after    1 cycles

 The electronic state is 1-A.
 Alpha  occ. eigenvalues --  -14.30489 -14.30489  -6.75226  -6.75206  -0.84619
 Alpha  occ. eigenvalues --   -0.83691  -0.61842  -0.49631  -0.49045  -0.46603
 Alpha  occ. eigenvalues --   -0.43376  -0.39853  -0.34430  -0.33354  -0.26687
 Alpha  occ. eigenvalues --   -0.22191
 Alpha virt. eigenvalues --    0.05098   0.05810   0.10666   0.12032   0.13739
 Alpha virt. eigenvalues --    0.16710   0.18422   0.20830   0.24010   0.28283
 Alpha virt. eigenvalues --    0.28830   0.36483   0.39309   0.43835   0.48256

  Beta  occ. eigenvalues --  -14.30489 -14.30489  -6.75226  -6.75206  -0.84619
  Beta  occ. eigenvalues --   -0.83691  -0.61842  -0.49631  -0.49045  -0.46603
  Beta  occ. eigenvalues --   -0.43376  -0.39853  -0.34430  -0.33354  -0.26687
  Beta  occ. eigenvalues --   -0.22191
  Beta virt. eigenvalues --    0.05098   0.05810   0.10666   0.12032   0.13739
  Beta virt. eigenvalues --    0.16710   0.18422   0.20830   0.24010   0.28283
  Beta virt. eigenvalues --    0.28830   0.36483   0.39309   0.43835   0.48256

 Mulliken charges and spin densities:
               1          2
     1  N   -0.633347   0.000000
     2  B    0.209091   0.000000
     3  N   -0.633348   0.000000
     4  B    0.209092  -0.000000
     5  H    0.250320  -0.000000
     6  H   -0.060868  -0.000000
     7  H   -0.001644   0.000000
     8  H    0.236448   0.000000
     9  H    0.250319  -0.000000
    10  H    0.236448  -0.000000
    11  H   -0.001643  -0.000000
    12  H   -0.060868   0.000000
 Sum of Mulliken charges =   0.00000   0.00000

 Dipole moment (field-independent basis, Debye):
    X=             -0.0000    Y=             -2.2221    Z=             -0.0000  Tot=              2.2221
 Quadrupole moment (field-independent basis, Debye-Ang):
   XX=            -23.4208   YY=            -25.5910   ZZ=            -28.9607
   XY=              0.0000   XZ=             -2.7052   YZ=              0.0000

  Exact polarizability:  55.590   0.000  42.745  -0.887   0.000  27.157
 Approx polarizability:  72.425   0.000  56.819  -0.042   0.000  39.584

 ******    1 imaginary frequencies (negative Signs) ******

                      1                      2                      3
                      A                      A                      A
 Frequencies --    -97.9049               143.2839               186.2641
 Red. masses --      1.0906                 2.9203                 1.2013
 Frc consts  --      0.0062                 0.0353                 0.0246
 IR Inten    --     12.7492                 1.6716                 0.9367

                      4                      5                      6
                      A                      A                      A
 Frequencies --    198.4270               374.3980               416.2958
 Red. masses --      1.1988                 4.6914                 1.1060
 Frc consts  --      0.0278                 0.3875                 0.1129
 IR Inten    --    461.9859                 0.0660                37.6258

                      7                      8                      9
                      A                      A                      A
 Frequencies --    475.1094               642.4212               719.4977
 Red. masses --      2.2321                 2.7798                 1.2476
 Frc consts  --      0.2969                 0.6759                 0.3805
 IR Inten    --      3.4503                 1.5523                 2.3588

                     10                     11                     12
                      A                      A                      A
 Frequencies --    766.4618               851.1631               928.9291
 Red. masses --      1.0661                 1.0968                 1.3016
 Frc consts  --      0.3690                 0.4682                 0.6618
 IR Inten    --      0.8934                 3.2989                23.9156

                     13                     14                     15
                      A                      A                      A
 Frequencies --   1068.4728              1078.2513              1102.7404
 Red. masses --      1.3160                 1.5091                 1.0941
 Frc consts  --      0.8852                 1.0337                 0.7839
 IR Inten    --      1.8081                 4.9823                10.2999

                     16                     17                     18
                      A                      A                      A
 Frequencies --   1120.8752              1229.3942              1296.1270
 Red. masses --      1.4312                 2.3160                 2.7875
 Frc consts  --      1.0594                 2.0624                 2.7590
 IR Inten    --     12.2177               445.1895                84.4573

                     19                     20                     21
                      A                      A                      A
 Frequencies --   1552.0042              1626.7372              1626.7798
 Red. masses --      1.0786                 1.1776                 1.0797
 Frc consts  --      1.5307                 1.8360                 1.6834
 IR Inten    --    463.2030                59.1265                59.0416

                     22                     23                     24
                      A                      A                      A
 Frequencies --   1658.1283              1980.6065              2165.5601
 Red. masses --      1.0895                 1.1158                 1.0232
 Frc consts  --      1.7649                 2.5788                 2.8272
 IR Inten    --     36.4459               189.8990                 1.8098

                     25                     26                     27
                      A                      A                      A
 Frequencies --   2645.1828              2657.2264              3626.2509
 Red. masses --      1.0937                 1.0949                 1.0494
 Frc consts  --      4.5088                 4.5549                 8.1300
 IR Inten    --     42.4733               150.5854                26.2001

                     28                     29                     30
                      A                      A                      A
 Frequencies --   3629.2330              3727.8635              3728.4249
 Red. masses --      1.0497                 1.0971                 1.0971
 Frc consts  --      8.1462                 8.9832                 8.9859
 IR Inten    --     10.8252                30.8640                 1.7711

 - Thermochemistry -
 -------------------
 Temperature   298.150 Kelvin.  Pressure   1.00000 Atm.
 Atom     1 has atomic number  7 and mass  14.00307

 Molecular mass:    58.08736 amu.
 Principal axes and moments of inertia in atomic units:
                           1         2         3
     Eigenvalues --   116.18360 429.55365 530.54578
           X            0.99994   0.00000  -0.01111
           Y           -0.00000   1.00000   0.00000
           Z            0.01111  -0.00000   0.99994
 This molecule is an asymmetric top.
 Rotational symmetry number  1.
 Rotational temperatures (Kelvin)      0.74549     0.20164     0.16325
 Rotational constants (GHZ):          15.53353     4.20143     3.40167
    1 imaginary frequencies ignored.
 Zero-point vibrational energy     258525.6 (Joules/Mol)
                                   61.78911 (Kcal/Mol)
 Warning -- explicit consideration of   6 degrees of freedom as
           vibrations may cause significant error
 Vibrational temperatures:    206.15   267.99   285.49   538.68   598.96
          (Kelvin)            683.58   924.30  1035.20  1102.77  1224.63
                             1336.52  1537.29  1551.36  1586.60  1612.69
                             1768.82  1864.84  2232.99  2340.51  2340.57
                             2385.68  2849.65  3115.76  3805.83  3823.16
                             5217.37  5221.66  5363.56  5364.37

 Zero-point correction=                           0.098467 (Hartree/Particle)
 Thermal correction to Energy=                    0.104560
 Thermal correction to Enthalpy=                  0.105504
 Thermal correction to Gibbs Free Energy=         0.070204
 Sum of electronic and zero-point Energies=           -163.980280
 Sum of electronic and thermal Energies=              -163.974187
 Sum of electronic and thermal Enthalpies=            -163.973243
 Sum of electronic and thermal Free Energies=         -164.008543

                     E (Thermal)             CV                S
                      KCal/Mol        Cal/Mol-Kelvin    Cal/Mol-Kelvin
 Total                   65.613             21.017             74.296
 Electronic               0.000              0.000              0.000
 Translational            0.889              2.981             38.099
 Rotational               0.889              2.981             24.785
 Vibrational             63.835             15.056             11.412
 Vibration     1          0.616              1.910              2.760
 Vibration     2          0.632              1.859              2.265
 Vibration     3          0.637              1.842              2.148
 Vibration     4          0.746              1.525              1.062
 Vibration     5          0.780              1.435              0.905
 Vibration     6          0.832              1.305              0.723

                           ! Non-Optimized Parameters !
 Normal termination of Gaussian 16 at Fri Jul  3 18:44:36 2020.
