 Gaussian 16, Revision A.03,
 Gaussian 16:  EM64L-G16RevA.03 25-Dec-2016

 --------------------------------------------
 #freq ub3lyp/6-31G(d,p) scf=(maxcycles=1024)
 --------------------------------------------

 ---------------
 something title
 ---------------
 Symbolic Z-matrix:
 Charge =  0 Multiplicity = 1

                         Standard orientation:
 ---------------------------------------------------------------------
 Center     Atomic      Atomic             Coordinates (Angstroms)
 Number     Number       Type             X           Y           Z
 ---------------------------------------------------------------------
      1          7           0       -1.557852   -0.604131   -0.032121
      2          5           0       -1.144232    0.715399   -0.115081
      3          7           0        1.538508   -0.589320   -0.013581
      4          5           0        1.053658    0.761300    0.118029
      5          1           0        2.280978   -0.816309   -0.655871
      6          1           0       -1.807553    1.643129    0.220609
      7          1           0       -0.134782    0.929780   -0.722621
      8          1           0       -0.926321   -1.350971   -0.292251
      9          1           0       -2.435362   -0.899941    0.364929
     10          1           0        1.467469   -1.246860    0.747309
     11          1           0        0.564858    1.081850    1.164499
     12          1           0        1.578987    1.629980   -0.521441
 ---------------------------------------------------------------------

 SCF Done:  E(UB3LYP) =  -164.075772143     A.U. after   12 cycles

 The electronic state is 1-A.
 Alpha  occ. eigenvalues --  -14.33641 -14.29877  -6.75396  -6.72340  -0.87023
 Alpha  occ. eigenvalues --   -0.83208  -0.57210  -0.51300  -0.49134  -0.47818
 Alpha  occ. eigenvalues --   -0.42184  -0.36206  -0.34652  -0.31884  -0.28733
 Alpha  occ. eigenvalues --   -0.23559
 Alpha virt. eigenvalues --    0.00816   0.07249   0.10183   0.12003   0.14052
 Alpha virt. eigenvalues --    0.15867   0.19484   0.20228   0.22515   0.24281
 Alpha virt. eigenvalues --    0.28171   0.32120   0.42834   0.43327   0.46340

  Beta  occ. eigenvalues --  -14.33641 -14.29877  -6.75396  -6.72340  -0.87023
  Beta  occ. eigenvalues --   -0.83208  -0.57210  -0.51300  -0.49134  -0.47818
  Beta  occ. eigenvalues --   -0.42184  -0.36206  -0.34652  -0.31884  -0.28733
  Beta  occ. eigenvalues --   -0.23559
  Beta virt. eigenvalues --    0.00816   0.07249   0.10183   0.12003   0.14052
  Beta virt. eigenvalues --    0.15867   0.19484   0.20228   0.22515   0.24281
  Beta virt. eigenvalues --    0.28171   0.32120   0.42834   0.43327   0.46340

 Mulliken charges and spin densities:
               1          2
     1  N   -0.550393  -0.000000
     2  B    0.224822  -0.000000
     3  N   -0.618679  -0.000000
     4  B    0.162596  -0.000000
     5  H    0.243401  -0.000000
     6  H   -0.055343  -0.000000
     7  H   -0.009764   0.000000
     8  H    0.264478   0.000000
     9  H    0.262235   0.000000
    10  H    0.238688  -0.000000
    11  H   -0.071987   0.000000
    12  H   -0.090054   0.000000
 Sum of Mulliken charges =   0.00000  -0.00000

 Dipole moment (field-independent basis, Debye):
    X=             -0.9433    Y=             -2.8847    Z=              0.0148  Tot=              3.0350
 Quadrupole moment (field-independent basis, Debye-Ang):
   XX=            -23.6629   YY=            -26.4691   ZZ=            -27.5509
   XY=             -0.6718   XZ=             -1.6742   YZ=             -1.1430

  Exact polarizability:  51.984   0.179  45.953  -2.729  -0.399  30.939
 Approx polarizability:  65.369   0.466  63.467  -2.822  -0.674  43.356

 ******    1 imaginary frequencies (negative Signs) ******

                      1                      2                      3
                      A                      A                      A
 Frequencies --   -214.3591                19.1659               192.2579
 Red. masses --      1.9539                 3.9528                 1.9296
 Frc consts  --      0.0529                 0.0009                 0.0420
 IR Inten    --     12.0120                18.2075                 3.6190

                      4                      5                      6
                      A                      A                      A
 Frequencies --    285.2573               403.7114               436.5060
 Red. masses --      1.1765                 2.7651                 1.2569
 Frc consts  --      0.0564                 0.2655                 0.1411
 IR Inten    --     60.8302                12.0787                79.4011

                      7                      8                      9
                      A                      A                      A
 Frequencies --    512.9544               629.8113               680.0646
 Red. masses --      1.1849                 1.2606                 1.1601
 Frc consts  --      0.1837                 0.2946                 0.3161
 IR Inten    --    161.0745                64.3705                10.6918

                     10                     11                     12
                      A                      A                      A
 Frequencies --    723.1631               858.9115               895.4452
 Red. masses --      1.0718                 1.0879                 1.1382
 Frc consts  --      0.3302                 0.4728                 0.5377
 IR Inten    --      1.9960                67.2909                 1.7525

                     13                     14                     15
                      A                      A                      A
 Frequencies --   1010.3614              1059.9528              1095.3496
 Red. masses --      1.2487                 1.6177                 1.4031
 Frc consts  --      0.7510                 1.0708                 0.9918
 IR Inten    --    290.7505                77.4722                93.8633

                     16                     17                     18
                      A                      A                      A
 Frequencies --   1128.8975              1138.7191              1245.6176
 Red. masses --      1.3669                 1.2194                 1.6903
 Frc consts  --      1.0264                 0.9316                 1.5452
 IR Inten    --     21.5579                 5.8721                75.2333

                     19                     20                     21
                      A                      A                      A
 Frequencies --   1332.2447              1478.5805              1625.3302
 Red. masses --      2.1872                 1.1328                 1.2758
 Frc consts  --      2.2872                 1.4591                 1.9857
 IR Inten    --     52.8398                70.6780               126.5027

                     22                     23                     24
                      A                      A                      A
 Frequencies --   1634.0417              2537.2748              2578.3377
 Red. masses --      1.1718                 1.0728                 1.0622
 Frc consts  --      1.8435                 4.0692                 4.1605
 IR Inten    --     32.8075               151.0607               153.6972

                     25                     26                     27
                      A                      A                      A
 Frequencies --   2620.4601              2702.4991              3581.1536
 Red. masses --      1.1193                 1.1129                 1.0512
 Frc consts  --      4.5284                 4.7891                 7.9430
 IR Inten    --    120.9865               159.5317                22.8412

                     28                     29                     30
                      A                      A                      A
 Frequencies --   3613.4258              3707.4684              3711.2430
 Red. masses --      1.0487                 1.0964                 1.0978
 Frc consts  --      8.0677                 8.8789                 8.9084
 IR Inten    --     12.9983                45.0334                 9.2768

 - Thermochemistry -
 -------------------
 Temperature   298.150 Kelvin.  Pressure   1.00000 Atm.
 Atom     1 has atomic number  7 and mass  14.00307

 Molecular mass:    58.08736 amu.
 Principal axes and moments of inertia in atomic units:
                           1         2         3
     Eigenvalues --   135.87202 421.04815 530.36219
           X            0.99988  -0.00201  -0.01563
           Y            0.00189   0.99997  -0.00770
           Z            0.01564   0.00767   0.99985
 This molecule is an asymmetric top.
 Rotational symmetry number  1.
 Rotational temperatures (Kelvin)      0.63747     0.20571     0.16331
 Rotational constants (GHZ):          13.28265     4.28631     3.40285
    1 imaginary frequencies ignored.
 Zero-point vibrational energy     259818.2 (Joules/Mol)
                                   62.09803 (Kcal/Mol)
 Warning -- explicit consideration of   6 degrees of freedom as
           vibrations may cause significant error
 Vibrational temperatures:     27.58   276.62   410.42   580.85   628.03
          (Kelvin)            738.03   906.16   978.46  1040.47  1235.78
                             1288.35  1453.68  1525.04  1575.96  1624.23
                             1638.36  1792.17  1916.80  2127.35  2338.49
                             2351.02  3650.57  3709.65  3770.26  3888.29
                             5152.48  5198.91  5334.22  5339.65

 Zero-point correction=                           0.098960 (Hartree/Particle)
 Thermal correction to Energy=                    0.105157
 Thermal correction to Enthalpy=                  0.106101
 Thermal correction to Gibbs Free Energy=         0.069232
 Sum of electronic and zero-point Energies=           -163.976813
 Sum of electronic and thermal Energies=              -163.970616
 Sum of electronic and thermal Enthalpies=            -163.969671
 Sum of electronic and thermal Free Energies=         -164.006541

                     E (Thermal)             CV                S
                      KCal/Mol        Cal/Mol-Kelvin    Cal/Mol-Kelvin
 Total                   65.987             21.221             77.598
 Electronic               0.000              0.000              0.000
 Translational            0.889              2.981             38.099
 Rotational               0.889              2.981             24.921
 Vibrational             64.209             15.259             14.578
 Vibration     1          0.593              1.986              6.719
 Vibration     2          0.634              1.851              2.206
 Vibration     3          0.683              1.701              1.502
 Vibration     4          0.769              1.462              0.949
 Vibration     5          0.797              1.391              0.838
 Vibration     6          0.868              1.221              0.627

 Normal termination of Gaussian 16 at Fri Jul  3 18:56:29 2020.
