 Gaussian 16, Revision A.03,
 Gaussian 16:  EM64L-G16RevA.03 25-Dec-2016

 -------------------------------------------------------------------
 #opt ub3lyp/6-31G(d,p) geom(modredundant, gic) scf=(maxcycles=1024)
 -------------------------------------------------------------------

 ---------------
 something title
 ---------------
 Symbolic Z-matrix:
 Charge =  0 Multiplicity = 1

 SCF Done:  E(UB3LYP) =  -164.045116224     A.U. after   13 cycles
 SCF Done:  E(UB3LYP) =  -164.054233737     A.U. after   13 cycles
 SCF Done:  E(UB3LYP) =  -164.056589907     A.U. after   13 cycles
 SCF Done:  E(UB3LYP) =  -164.064512470     A.U. after   11 cycles
 SCF Done:  E(UB3LYP) =  -164.071615966     A.U. after   12 cycles
 SCF Done:  E(UB3LYP) =  -164.074104271     A.U. after   12 cycles
 SCF Done:  E(UB3LYP) =  -164.074820743     A.U. after   10 cycles
 SCF Done:  E(UB3LYP) =  -164.075133518     A.U. after   10 cycles
 SCF Done:  E(UB3LYP) =  -164.075295102     A.U. after   10 cycles
 SCF Done:  E(UB3LYP) =  -164.075448908     A.U. after    9 cycles
 SCF Done:  E(UB3LYP) =  -164.075629247     A.U. after   10 cycles
 SCF Done:  E(UB3LYP) =  -164.075691522     A.U. after   10 cycles
 SCF Done:  E(UB3LYP) =  -164.075724050     A.U. after   10 cycles
 SCF Done:  E(UB3LYP) =  -164.075752588     A.U. after    9 cycles
 SCF Done:  E(UB3LYP) =  -164.075770826     A.U. after    9 cycles
 SCF Done:  E(UB3LYP) =  -164.075770926     A.U. after    8 cycles
 SCF Done:  E(UB3LYP) =  -164.075771778     A.U. after    8 cycles
 SCF Done:  E(UB3LYP) =  -164.075772023     A.U. after    8 cycles
 Optimization completed.
    -- Stationary point found.

                         Standard orientation:
 ---------------------------------------------------------------------
 Center     Atomic      Atomic             Coordinates (Angstroms)
 Number     Number       Type             X           Y           Z
 ---------------------------------------------------------------------
      1          7           0       -1.557850   -0.604132   -0.032124
      2          5           0       -1.144235    0.715399   -0.115084
      3          7           0        1.538509   -0.589319   -0.013577
      4          5           0        1.053656    0.761302    0.118032
      5          1           0        2.280983   -0.816314   -0.655869
      6          1           0       -1.807549    1.643131    0.220610
      7          1           0       -0.134783    0.929779   -0.722618
      8          1           0       -0.926325   -1.350969   -0.292251
      9          1           0       -2.435362   -0.899939    0.364931
     10          1           0        1.467465   -1.246862    0.747307
     11          1           0        0.564861    1.081848    1.164500
     12          1           0        1.578994    1.629980   -0.521440
 ---------------------------------------------------------------------

 The electronic state is 1-A.
 Alpha  occ. eigenvalues --  -14.33641 -14.29877  -6.75396  -6.72340  -0.87023
 Alpha  occ. eigenvalues --   -0.83208  -0.57210  -0.51300  -0.49134  -0.47818
 Alpha  occ. eigenvalues --   -0.42184  -0.36206  -0.34652  -0.31884  -0.28733
 Alpha  occ. eigenvalues --   -0.23559
 Alpha virt. eigenvalues --    0.00816   0.07249   0.10183   0.12003   0.14052
 Alpha virt. eigenvalues --    0.15867   0.19484   0.20228   0.22515   0.24281
 Alpha virt. eigenvalues --    0.28172   0.32120   0.42834   0.43327   0.46340

  Beta  occ. eigenvalues --  -14.33641 -14.29877  -6.75396  -6.72340  -0.87023
  Beta  occ. eigenvalues --   -0.83208  -0.57210  -0.51300  -0.49134  -0.47818
  Beta  occ. eigenvalues --   -0.42184  -0.36206  -0.34652  -0.31884  -0.28733
  Beta  occ. eigenvalues --   -0.23559
  Beta virt. eigenvalues --    0.00816   0.07249   0.10183   0.12003   0.14052
  Beta virt. eigenvalues --    0.15867   0.19484   0.20228   0.22515   0.24281
  Beta virt. eigenvalues --    0.28172   0.32120   0.42834   0.43327   0.46340

 Mulliken charges and spin densities:
               1          2
     1  N   -0.550393   0.000000
     2  B    0.224822   0.000000
     3  N   -0.618680  -0.000000
     4  B    0.162598  -0.000000
     5  H    0.243400   0.000000
     6  H   -0.055342  -0.000000
     7  H   -0.009764   0.000000
     8  H    0.264478   0.000000
     9  H    0.262235   0.000000
    10  H    0.238687  -0.000000
    11  H   -0.071986   0.000000
    12  H   -0.090055   0.000000
 Sum of Mulliken charges =  -0.00000   0.00000

 Dipole moment (field-independent basis, Debye):
    X=             -0.9434    Y=             -2.8847    Z=              0.0148  Tot=              3.0351
 Quadrupole moment (field-independent basis, Debye-Ang):
   XX=            -23.6629   YY=            -26.4690   ZZ=            -27.5509
   XY=             -0.6719   XZ=             -1.6742   YZ=             -1.1430

 Normal termination of Gaussian 16 at Fri Jul  3 18:52:51 2020.
