 Gaussian 16, Revision A.03,
 Gaussian 16:  EM64L-G16RevA.03 25-Dec-2016

 ----------------------------------------------------------------------
 #irc=(reverse calcfc, maxpoint=100, stepsize=5) ub3lyp/6-31G(d,p) scf=
 (maxcycles=1024)
 ----------------------------------------------------------------------

 ---------------
 something title
 ---------------
 Symbolic Z-matrix:
 Charge =  0 Multiplicity = 1

 SCF Done:  E(UB3LYP) =  -164.078746808     A.U. after   12 cycles
 SCF Done:  E(UB3LYP) =  -164.078747315     A.U. after    8 cycles

                          Input orientation:
 ---------------------------------------------------------------------
 Center     Atomic      Atomic             Coordinates (Angstroms)
 Number     Number       Type             X           Y           Z
 ---------------------------------------------------------------------
      1          7           0       -1.671014   -0.554176   -0.044912
      2          5           0       -0.911297    0.662458   -0.021633
      3          7           0        1.671014   -0.554176    0.044911
      4          5           0        0.911297    0.662458    0.021633
      5          1           0        2.631955   -0.554458   -0.253698
      6          1           0       -1.483879    1.705145    0.070292
      7          1           0       -0.034077    0.790680   -0.975966
      8          1           0       -1.271072   -1.478026   -0.084410
      9          1           0       -2.631954   -0.554458    0.253709
     10          1           0        1.271072   -1.478026    0.084410
     11          1           0        0.034077    0.790680    0.975965
     12          1           0        1.483879    1.705145   -0.070293
 ---------------------------------------------------------------------

 Alpha  occ. eigenvalues --  -14.30489 -14.30489  -6.75226  -6.75206  -0.84619
 Alpha  occ. eigenvalues --   -0.83691  -0.61842  -0.49631  -0.49044  -0.46603
 Alpha  occ. eigenvalues --   -0.43376  -0.39853  -0.34430  -0.33354  -0.26688
 Alpha  occ. eigenvalues --   -0.22191
 Alpha virt. eigenvalues --    0.05098   0.05810   0.10666   0.12032   0.13739
 Alpha virt. eigenvalues --    0.16710   0.18422   0.20830   0.24010   0.28283
 Alpha virt. eigenvalues --    0.28830   0.36483   0.39309   0.43835   0.48256

  Beta  occ. eigenvalues --  -14.30489 -14.30489  -6.75226  -6.75206  -0.84619
  Beta  occ. eigenvalues --   -0.83691  -0.61842  -0.49631  -0.49044  -0.46603
  Beta  occ. eigenvalues --   -0.43376  -0.39853  -0.34430  -0.33354  -0.26688
  Beta  occ. eigenvalues --   -0.22191
  Beta virt. eigenvalues --    0.05098   0.05810   0.10666   0.12032   0.13739
  Beta virt. eigenvalues --    0.16710   0.18422   0.20830   0.24010   0.28283
  Beta virt. eigenvalues --    0.28830   0.36483   0.39309   0.43835   0.48256

 Mulliken charges and spin densities:
               1          2
     1  N   -0.633346  -0.000000
     2  B    0.209090  -0.000000
     3  N   -0.633346   0.000000
     4  B    0.209090  -0.000000
     5  H    0.250320  -0.000000
     6  H   -0.060869   0.000000
     7  H   -0.001642   0.000000
     8  H    0.236447   0.000000
     9  H    0.250320   0.000000
    10  H    0.236447   0.000000
    11  H   -0.001642  -0.000000
    12  H   -0.060869   0.000000
 Sum of Mulliken charges =  -0.00000  -0.00000

 Dipole moment (field-independent basis, Debye):
    X=              0.0000    Y=             -2.2222    Z=              0.0000  Tot=              2.2222
 Quadrupole moment (field-independent basis, Debye-Ang):
   XX=            -23.4221   YY=            -25.5623   ZZ=            -28.9595
   XY=             -0.0000   XZ=             -2.7064   YZ=             -0.0000

  Exact polarizability:   0.000   0.000   0.000   0.000   0.000   0.000
 Approx polarizability:  72.425   0.000  56.820  -0.049   0.000  39.584

 Normal termination of Gaussian 16 at Fri Jul  3 18:31:03 2020.
