 Gaussian 16, Revision A.03,
 Gaussian 16:  EM64L-G16RevA.03 25-Dec-2016

 --------------------------------------------
 #freq ub3lyp/6-31G(d,p) scf=(maxcycles=1024)
 --------------------------------------------

 ---------------
 something title
 ---------------
 Symbolic Z-matrix:
 Charge =  0 Multiplicity = 1

                         Standard orientation:
 ---------------------------------------------------------------------
 Center     Atomic      Atomic             Coordinates (Angstroms)
 Number     Number       Type             X           Y           Z
 ---------------------------------------------------------------------
      1          7           0        1.003935   -0.654959   -0.299169
      2          5           0        1.374096    0.697513   -0.021708
      3          7           0       -1.579905    0.131585   -0.293632
      4          5           0       -0.634065   -0.075055    0.752857
      5          1           0       -1.517160    0.941035   -0.919338
      6          1           0        1.007077    1.542051   -0.760672
      7          1           0        2.230967    0.898708    0.767982
      8          1           0        1.457306   -1.421582    0.168898
      9          1           0        0.562334   -0.936434   -1.156063
     10          1           0       -2.483458   -0.326308   -0.300065
     11          1           0       -0.783559   -1.035900    1.418522
     12          1           0       -0.141874    0.889760    1.274598
 ---------------------------------------------------------------------

 SCF Done:  E(UB3LYP) =  -164.074368150     A.U. after   12 cycles

 The electronic state is 1-A.
 Alpha  occ. eigenvalues --  -14.34889 -14.29078  -6.75255  -6.72952  -0.88863
 Alpha  occ. eigenvalues --   -0.82324  -0.55186  -0.52383  -0.49414  -0.47022
 Alpha  occ. eigenvalues --   -0.40474  -0.38178  -0.32947  -0.32708  -0.31217
 Alpha  occ. eigenvalues --   -0.22050
 Alpha virt. eigenvalues --    0.02242   0.07393   0.08703   0.10916   0.13057
 Alpha virt. eigenvalues --    0.15930   0.18645   0.22648   0.23347   0.24888
 Alpha virt. eigenvalues --    0.26411   0.27664   0.42337   0.43477   0.45241

  Beta  occ. eigenvalues --  -14.34889 -14.29078  -6.75255  -6.72952  -0.88863
  Beta  occ. eigenvalues --   -0.82324  -0.55186  -0.52383  -0.49414  -0.47022
  Beta  occ. eigenvalues --   -0.40474  -0.38178  -0.32947  -0.32708  -0.31217
  Beta  occ. eigenvalues --   -0.22050
  Beta virt. eigenvalues --    0.02242   0.07393   0.08703   0.10916   0.13057
  Beta virt. eigenvalues --    0.15930   0.18645   0.22648   0.23347   0.24888
  Beta virt. eigenvalues --    0.26411   0.27664   0.42337   0.43477   0.45241

 Mulliken charges and spin densities:
               1          2
     1  N   -0.552180   0.000000
     2  B    0.188488  -0.000000
     3  N   -0.623495   0.000000
     4  B    0.246308  -0.000000
     5  H    0.237577   0.000000
     6  H   -0.064414   0.000000
     7  H   -0.058926  -0.000000
     8  H    0.274260  -0.000000
     9  H    0.276094  -0.000000
    10  H    0.242659   0.000000
    11  H   -0.097647   0.000000
    12  H   -0.068724   0.000000
 Sum of Mulliken charges =   0.00000   0.00000

 Dipole moment (field-independent basis, Debye):
    X=             -0.0096    Y=             -1.5452    Z=             -1.7967  Tot=              2.3698
 Quadrupole moment (field-independent basis, Debye-Ang):
   XX=            -25.0390   YY=            -26.1674   ZZ=            -27.9264
   XY=             -2.9354   XZ=              1.3477   YZ=             -0.1098

  Exact polarizability:  48.630   2.987  40.224   1.303  -2.471  37.748
 Approx polarizability:  61.479   2.683  55.097   1.007  -2.608  51.862

 ******    2 imaginary frequencies (negative Signs) ******

                      1                      2                      3
                      A                      A                      A
 Frequencies --   -364.3591               -83.7347               118.1806
 Red. masses --      3.3704                 2.3030                 2.1345
 Frc consts  --      0.2636                 0.0095                 0.0176
 IR Inten    --     12.9959                47.7629                 3.5162

                      4                      5                      6
                      A                      A                      A
 Frequencies --    266.9773               354.2925               525.1573
 Red. masses --      2.5772                 1.2647                 1.2140
 Frc consts  --      0.1082                 0.0935                 0.1973
 IR Inten    --     65.0541               125.6478                28.0950

                      7                      8                      9
                      A                      A                      A
 Frequencies --    543.4666               650.5356               703.3367
 Red. masses --      1.3250                 1.1244                 1.0483
 Frc consts  --      0.2306                 0.2804                 0.3055
 IR Inten    --     53.9580                16.9581                 0.0822

                     10                     11                     12
                      A                      A                      A
 Frequencies --    747.0635               792.8192               854.3705
 Red. masses --      1.1975                 1.0511                 1.0750
 Frc consts  --      0.3938                 0.3893                 0.4623
 IR Inten    --     76.6879                18.9224                34.0596

                     13                     14                     15
                      A                      A                      A
 Frequencies --    984.7143              1067.5363              1103.4107
 Red. masses --      1.2210                 1.1763                 1.2762
 Frc consts  --      0.6976                 0.7899                 0.9155
 IR Inten    --    226.5141                73.2278                23.0744

                     16                     17                     18
                      A                      A                      A
 Frequencies --   1121.0114              1129.9978              1142.2267
 Red. masses --      1.4556                 1.4473                 1.5385
 Frc consts  --      1.0777                 1.0888                 1.1827
 IR Inten    --     18.9232                25.2467                 8.5984

                     19                     20                     21
                      A                      A                      A
 Frequencies --   1266.5877              1289.6613              1636.7670
 Red. masses --      2.2418                 1.8385                 1.1602
 Frc consts  --      2.1189                 1.8017                 1.8313
 IR Inten    --    101.2823                39.9469                57.0035

                     22                     23                     24
                      A                      A                      A
 Frequencies --   1653.8044              2547.0801              2688.1529
 Red. masses --      1.1734                 1.0761                 1.0535
 Frc consts  --      1.8909                 4.1132                 4.4853
 IR Inten    --     79.7100               131.4331                90.5646

                     25                     26                     27
                      A                      A                      A
 Frequencies --   2745.7338              2777.2155              3442.4251
 Red. masses --      1.1013                 1.1339                 1.0586
 Frc consts  --      4.8918                 5.1530                 7.3913
 IR Inten    --    128.4364               127.3200                 6.5019

                     28                     29                     30
                      A                      A                      A
 Frequencies --   3624.0860              3646.8555              3751.4554
 Red. masses --      1.0873                 1.0504                 1.0979
 Frc consts  --      8.4136                 8.2309                 9.1034
 IR Inten    --     19.0868                25.9426                33.0550

 - Thermochemistry -
 -------------------
 Temperature   298.150 Kelvin.  Pressure   1.00000 Atm.
 Atom     1 has atomic number  7 and mass  14.00307

 Molecular mass:    58.08736 amu.
 Principal axes and moments of inertia in atomic units:
                           1         2         3
     Eigenvalues --   130.33128 384.69454 402.68360
           X            0.99969   0.00364   0.02460
           Y           -0.00034   0.99110  -0.13310
           Z           -0.02486   0.13305   0.99080
 This molecule is an asymmetric top.
 Rotational symmetry number  1.
 Rotational temperatures (Kelvin)      0.66457     0.22515     0.21509
 Rotational constants (GHZ):          13.84734     4.69136     4.48178
    2 imaginary frequencies ignored.
 Zero-point vibrational energy     258243.4 (Joules/Mol)
                                   61.72165 (Kcal/Mol)
 Warning -- explicit consideration of   5 degrees of freedom as
           vibrations may cause significant error
 Vibrational temperatures:    170.04   384.12   509.75   755.58   781.93
          (Kelvin)            935.98  1011.94  1074.86  1140.69  1229.25
                             1416.78  1535.95  1587.56  1612.89  1625.81
                             1643.41  1822.34  1855.53  2354.94  2379.46
                             3664.68  3867.65  3950.50  3995.79  4952.88
                             5214.25  5247.01  5397.51

 Zero-point correction=                           0.098360 (Hartree/Particle)
 Thermal correction to Energy=                    0.103786
 Thermal correction to Enthalpy=                  0.104730
 Thermal correction to Gibbs Free Energy=         0.070786
 Sum of electronic and zero-point Energies=           -163.976008
 Sum of electronic and thermal Energies=              -163.970582
 Sum of electronic and thermal Enthalpies=            -163.969638
 Sum of electronic and thermal Free Energies=         -164.003582

                     E (Thermal)             CV                S
                      KCal/Mol        Cal/Mol-Kelvin    Cal/Mol-Kelvin
 Total                   65.127             19.419             71.441
 Electronic               0.000              0.000              0.000
 Translational            0.889              2.981             38.099
 Rotational               0.889              2.981             24.516
 Vibrational             63.349             13.457              8.827
 Vibration     1          0.608              1.934              3.130
 Vibration     2          0.672              1.734              1.616
 Vibration     3          0.730              1.566              1.147
 Vibration     4          0.880              1.194              0.598
 Vibration     5          0.899              1.154              0.558

 Normal termination of Gaussian 16 at Fri Jul  3 16:06:13 2020.
