 Gaussian 16, Revision A.03,
 Gaussian 16:  EM64L-G16RevA.03 25-Dec-2016

 -------------------------------------------------
 # opt freq ub3lyp/6-31G(d,p) scf=(maxcycles=1024)
 -------------------------------------------------

 ---------------
 something title
 ---------------
 Symbolic Z-matrix:
 Charge =  0 Multiplicity = 1

 SCF Done:  E(UB3LYP) =  -164.096997650     A.U. after   12 cycles
 SCF Done:  E(UB3LYP) =  -164.097200203     A.U. after    9 cycles
 SCF Done:  E(UB3LYP) =  -164.097576991     A.U. after   11 cycles
 SCF Done:  E(UB3LYP) =  -164.097773132     A.U. after   11 cycles
 SCF Done:  E(UB3LYP) =  -164.098055320     A.U. after   11 cycles
 SCF Done:  E(UB3LYP) =  -164.098750453     A.U. after   12 cycles
 SCF Done:  E(UB3LYP) =  -164.099298211     A.U. after   10 cycles
 SCF Done:  E(UB3LYP) =  -164.101149612     A.U. after   12 cycles
 SCF Done:  E(UB3LYP) =  -164.101913540     A.U. after   10 cycles
 SCF Done:  E(UB3LYP) =  -164.102425736     A.U. after   10 cycles
 SCF Done:  E(UB3LYP) =  -164.104909163     A.U. after   10 cycles
 SCF Done:  E(UB3LYP) =  -164.105555305     A.U. after   10 cycles
 SCF Done:  E(UB3LYP) =  -164.105817787     A.U. after   10 cycles
 SCF Done:  E(UB3LYP) =  -164.105974217     A.U. after   10 cycles
 SCF Done:  E(UB3LYP) =  -164.106174057     A.U. after   10 cycles
 SCF Done:  E(UB3LYP) =  -164.106312777     A.U. after   10 cycles
 SCF Done:  E(UB3LYP) =  -164.106335051     A.U. after    7 cycles
 SCF Done:  E(UB3LYP) =  -164.106339018     A.U. after    8 cycles
 SCF Done:  E(UB3LYP) =  -164.106339716     A.U. after    7 cycles
 Optimization completed.
    -- Stationary point found.
 Normal termination of Gaussian 16 at Fri Jul  3 17:17:31 2020.

 ----------------------------------------------------------------------
 #N Geom=AllCheck Guess=TCheck SCRF=Check GenChk UB3LYP/6-31G(d,p) Freq
 ----------------------------------------------------------------------

 Structure from the checkpoint file:  "/scratch/1311826/Gau-2498.chk"
 ---------------
 something title
 ---------------
 Charge =  0 Multiplicity = 1

                         Standard orientation:
 ---------------------------------------------------------------------
 Center     Atomic      Atomic             Coordinates (Angstroms)
 Number     Number       Type             X           Y           Z
 ---------------------------------------------------------------------
      1          7           0        0.644322   -0.626923   -0.338171
      2          5           0        1.604220    0.659242    0.220746
      3          7           0       -1.630528    0.372721   -0.122748
      4          5           0       -0.673476   -0.511545    0.356389
      5          1           0       -1.437051    1.057742   -0.839803
      6          1           0        1.156727    1.633107   -0.343308
      7          1           0        2.731207    0.370419   -0.106615
      8          1           0        1.128350   -1.491178   -0.112777
      9          1           0        0.604004   -0.546808   -1.351259
     10          1           0       -2.495623    0.533306    0.368662
     11          1           0       -0.876681   -1.199010    1.305702
     12          1           0        1.438793    0.683350    1.420151
 ---------------------------------------------------------------------

 SCF Done:  E(UB3LYP) =  -164.106339716     A.U. after    1 cycles

 The electronic state is 1-A.
 Alpha  occ. eigenvalues --  -14.37809 -14.34863  -6.78153  -6.67715  -0.92067
 Alpha  occ. eigenvalues --   -0.87749  -0.55568  -0.54644  -0.51968  -0.49426
 Alpha  occ. eigenvalues --   -0.45356  -0.37710  -0.34015  -0.30617  -0.26880
 Alpha  occ. eigenvalues --   -0.26398
 Alpha virt. eigenvalues --    0.01892   0.05247   0.08181   0.10147   0.13624
 Alpha virt. eigenvalues --    0.16838   0.19785   0.21493   0.23220   0.25173
 Alpha virt. eigenvalues --    0.25457   0.30441   0.42544   0.45516   0.45948

  Beta  occ. eigenvalues --  -14.37809 -14.34863  -6.78153  -6.67715  -0.92067
  Beta  occ. eigenvalues --   -0.87749  -0.55568  -0.54644  -0.51968  -0.49426
  Beta  occ. eigenvalues --   -0.45356  -0.37710  -0.34015  -0.30617  -0.26880
  Beta  occ. eigenvalues --   -0.26398
  Beta virt. eigenvalues --    0.01892   0.05247   0.08181   0.10147   0.13624
  Beta virt. eigenvalues --    0.16838   0.19785   0.21493   0.23220   0.25173
  Beta virt. eigenvalues --    0.25457   0.30441   0.42544   0.45516   0.45948

 Mulliken charges and spin densities:
               1          2
     1  N   -0.566894  -0.000000
     2  B    0.044186   0.000000
     3  N   -0.578341   0.000000
     4  B    0.394878  -0.000000
     5  H    0.268971   0.000000
     6  H   -0.129108   0.000000
     7  H   -0.121181   0.000000
     8  H    0.292813   0.000000
     9  H    0.283361  -0.000000
    10  H    0.270742  -0.000000
    11  H   -0.048051   0.000000
    12  H   -0.111377  -0.000000
 Sum of Mulliken charges =   0.00000   0.00000

 Dipole moment (field-independent basis, Debye):
    X=             -3.8404    Y=             -2.3507    Z=             -2.1565  Tot=              4.9925
 Quadrupole moment (field-independent basis, Debye-Ang):
   XX=            -30.1220   YY=            -26.8366   ZZ=            -26.8313
   XY=             -7.3331   XZ=             -2.0118   YZ=             -0.1995

  Exact polarizability:  49.128  -2.689  37.444  -1.094  -4.550  36.881
 Approx polarizability:  60.629  -5.866  49.876  -0.591  -6.987  50.351

                      1                      2                      3
                      A                      A                      A
 Frequencies --    109.8894               134.6385               230.0521
 Red. masses --      2.1051                 1.2693                 1.7041
 Frc consts  --      0.0150                 0.0136                 0.0531
 IR Inten    --     18.1111                 8.6484                15.1722

                      4                      5                      6
                      A                      A                      A
 Frequencies --    397.9210               525.0804               549.5465
 Red. masses --      2.0292                 1.7979                 1.4702
 Frc consts  --      0.1893                 0.2921                 0.2616
 IR Inten    --      2.0574                87.4334               149.7086

                      7                      8                      9
                      A                      A                      A
 Frequencies --    633.3332               662.3164               805.5451
 Red. masses --      1.8395                 1.1435                 1.4877
 Frc consts  --      0.4347                 0.2955                 0.5688
 IR Inten    --     37.7400                 2.4605                21.1555

                     10                     11                     12
                      A                      A                      A
 Frequencies --    853.4688               916.8646               948.4966
 Red. masses --      1.1300                 1.3651                 1.4961
 Frc consts  --      0.4850                 0.6761                 0.7930
 IR Inten    --      2.9985                15.9682                46.7768

                     13                     14                     15
                      A                      A                      A
 Frequencies --   1064.4898              1097.1937              1121.1934
 Red. masses --      1.4082                 1.2614                 1.2039
 Frc consts  --      0.9402                 0.8946                 0.8917
 IR Inten    --     27.9507                86.1087                15.3249

                     16                     17                     18
                      A                      A                      A
 Frequencies --   1176.1738              1199.8014              1204.7700
 Red. masses --      1.3895                 1.0727                 1.0670
 Frc consts  --      1.1325                 0.9098                 0.9125
 IR Inten    --    162.8243                11.7400                 3.9336

                     19                     20                     21
                      A                      A                      A
 Frequencies --   1209.7032              1425.9572              1646.7260
 Red. masses --      1.3818                 2.5496                 1.1758
 Frc consts  --      1.1914                 3.0544                 1.8786
 IR Inten    --     32.9655               113.1076               116.0764

                     22                     23                     24
                      A                      A                      A
 Frequencies --   1654.4264              2463.6102              2515.8504
 Red. masses --      1.2508                 1.0229                 1.1162
 Frc consts  --      2.0171                 3.6577                 4.1626
 IR Inten    --     98.2297                66.3607               200.4526

                     25                     26                     27
                      A                      A                      A
 Frequencies --   2532.8721              2690.6553              3518.1568
 Red. masses --      1.1170                 1.1013                 1.0517
 Frc consts  --      4.2221                 4.6975                 7.6697
 IR Inten    --    227.0708               104.3213                18.8041

                     28                     29                     30
                      A                      A                      A
 Frequencies --   3596.8049              3606.7477              3714.0583
 Red. masses --      1.0932                 1.0513                 1.0970
 Frc consts  --      8.3329                 8.0575                 8.9161
 IR Inten    --     26.2699                38.7842                35.4949

 - Thermochemistry -
 -------------------
 Temperature   298.150 Kelvin.  Pressure   1.00000 Atm.
 Atom     1 has atomic number  7 and mass  14.00307

 Molecular mass:    58.08736 amu.
 Principal axes and moments of inertia in atomic units:
                           1         2         3
     Eigenvalues --   121.78738 386.97272 435.47980
           X            0.99982  -0.01828  -0.00537
           Y            0.01787   0.99748  -0.06867
           Z            0.00661   0.06856   0.99763
 This molecule is an asymmetric top.
 Rotational symmetry number  1.
 Rotational temperatures (Kelvin)      0.71119     0.22382     0.19889
 Rotational constants (GHZ):          14.81879     4.66374     4.14426
 Zero-point vibrational energy     264412.7 (Joules/Mol)
                                   63.19614 (Kcal/Mol)
 Warning -- explicit consideration of   6 degrees of freedom as
           vibrations may cause significant error
 Vibrational temperatures:    158.11   193.71   330.99   572.52   755.47
          (Kelvin)            790.67   911.23   952.93  1159.00  1227.95
                             1319.16  1364.68  1531.56  1578.62  1613.15
                             1692.25  1726.25  1733.40  1740.49  2051.63
                             2369.27  2380.35  3544.59  3619.75  3644.24
                             3871.25  5061.84  5175.00  5189.31  5343.70

 Zero-point correction=                           0.100709 (Hartree/Particle)
 Thermal correction to Energy=                    0.106816
 Thermal correction to Enthalpy=                  0.107760
 Thermal correction to Gibbs Free Energy=         0.072349
 Sum of electronic and zero-point Energies=           -164.005630
 Sum of electronic and thermal Energies=              -163.999524
 Sum of electronic and thermal Enthalpies=            -163.998580
 Sum of electronic and thermal Free Energies=         -164.033990

                     E (Thermal)             CV                S
                      KCal/Mol        Cal/Mol-Kelvin    Cal/Mol-Kelvin
 Total                   67.028             21.287             74.528
 Electronic               0.000              0.000              0.000
 Translational            0.889              2.981             38.099
 Rotational               0.889              2.981             24.532
 Vibrational             65.250             15.326             11.897
 Vibration     1          0.606              1.941              3.271
 Vibration     2          0.613              1.919              2.879
 Vibration     3          0.652              1.795              1.879
 Vibration     4          0.764              1.475              0.970
 Vibration     5          0.880              1.194              0.598
 Vibration     6          0.905              1.141              0.545

                           ! Non-Optimized Parameters !
 Normal termination of Gaussian 16 at Fri Jul  3 17:20:19 2020.
