 Gaussian 16, Revision A.03,
 Gaussian 16:  EM64L-G16RevA.03 25-Dec-2016

 ------------------------------------------------
 #opt freq ub3lyp/6-31G(d,p) scf=(maxcycles=1024)
 ------------------------------------------------

 ---------------
 something title
 ---------------
 Symbolic Z-matrix:
 Charge =  0 Multiplicity = 1

 SCF Done:  E(UB3LYP) =  -164.084254500     A.U. after   12 cycles
 SCF Done:  E(UB3LYP) =  -164.063729958     A.U. after   12 cycles
 SCF Done:  E(UB3LYP) =  -164.087469342     A.U. after   12 cycles
 SCF Done:  E(UB3LYP) =  -164.079843905     A.U. after   12 cycles
 SCF Done:  E(UB3LYP) =  -164.089336261     A.U. after   11 cycles
 SCF Done:  E(UB3LYP) =  -164.091034929     A.U. after   11 cycles
 SCF Done:  E(UB3LYP) =  -164.093778226     A.U. after   11 cycles
 SCF Done:  E(UB3LYP) =  -164.095235706     A.U. after   11 cycles
 SCF Done:  E(UB3LYP) =  -164.095574633     A.U. after   11 cycles
 SCF Done:  E(UB3LYP) =  -164.097563830     A.U. after   11 cycles
 SCF Done:  E(UB3LYP) =  -164.106323361     A.U. after    8 cycles
 SCF Done:  E(UB3LYP) =  -164.106326176     A.U. after    7 cycles
 SCF Done:  E(UB3LYP) =  -164.106328990     A.U. after    8 cycles
 SCF Done:  E(UB3LYP) =  -164.106332811     A.U. after    8 cycles
 SCF Done:  E(UB3LYP) =  -164.106334181     A.U. after    8 cycles
 SCF Done:  E(UB3LYP) =  -164.106337147     A.U. after    8 cycles
 SCF Done:  E(UB3LYP) =  -164.106338759     A.U. after    8 cycles
 SCF Done:  E(UB3LYP) =  -164.106339742     A.U. after    7 cycles
 SCF Done:  E(UB3LYP) =  -164.106340018     A.U. after    7 cycles
 Optimization completed.
    -- Stationary point found.
 Normal termination of Gaussian 16 at Fri Jul  3 16:43:22 2020.

 ----------------------------------------------------------------------
 #N Geom=AllCheck Guess=TCheck SCRF=Check GenChk UB3LYP/6-31G(d,p) Freq
 ----------------------------------------------------------------------

 Structure from the checkpoint file:  "/scratch/1311821/Gau-26010.chk"
 ---------------
 something title
 ---------------
 Charge =  0 Multiplicity = 1

                         Standard orientation:
 ---------------------------------------------------------------------
 Center     Atomic      Atomic             Coordinates (Angstroms)
 Number     Number       Type             X           Y           Z
 ---------------------------------------------------------------------
      1          7           0        0.644042   -0.626620   -0.338440
      2          5           0        1.604905    0.658940    0.220343
      3          7           0       -1.631301    0.371966   -0.122599
      4          5           0       -0.672901   -0.510373    0.357185
      5          1           0       -1.440457    1.054058   -0.843107
      6          1           0        1.157452    1.632729   -0.343790
      7          1           0        2.731748    0.369788   -0.107441
      8          1           0        1.127756   -1.491038   -0.112883
      9          1           0        0.603493   -0.546903   -1.351544
     10          1           0       -2.495950    0.532945    0.369443
     11          1           0       -0.873642   -1.194909    1.309106
     12          1           0        1.440389    0.683070    1.419845
 ---------------------------------------------------------------------

 SCF Done:  E(UB3LYP) =  -164.106340018     A.U. after    1 cycles

 The electronic state is 1-A.
 Alpha  occ. eigenvalues --  -14.37809 -14.34865  -6.78148  -6.67712  -0.92068
 Alpha  occ. eigenvalues --   -0.87752  -0.55569  -0.54647  -0.51971  -0.49428
 Alpha  occ. eigenvalues --   -0.45359  -0.37701  -0.34016  -0.30616  -0.26880
 Alpha  occ. eigenvalues --   -0.26393
 Alpha virt. eigenvalues --    0.01904   0.05243   0.08178   0.10144   0.13624
 Alpha virt. eigenvalues --    0.16842   0.19776   0.21496   0.23231   0.25180
 Alpha virt. eigenvalues --    0.25454   0.30430   0.42552   0.45522   0.45943

  Beta  occ. eigenvalues --  -14.37809 -14.34865  -6.78148  -6.67712  -0.92068
  Beta  occ. eigenvalues --   -0.87752  -0.55569  -0.54647  -0.51971  -0.49428
  Beta  occ. eigenvalues --   -0.45359  -0.37701  -0.34016  -0.30616  -0.26880
  Beta  occ. eigenvalues --   -0.26393
  Beta virt. eigenvalues --    0.01904   0.05243   0.08178   0.10144   0.13624
  Beta virt. eigenvalues --    0.16842   0.19776   0.21496   0.23231   0.25180
  Beta virt. eigenvalues --    0.25454   0.30430   0.42552   0.45522   0.45943

 Mulliken charges and spin densities:
               1          2
     1  N   -0.566787   0.000000
     2  B    0.044155  -0.000000
     3  N   -0.578262  -0.000000
     4  B    0.394744  -0.000000
     5  H    0.268866   0.000000
     6  H   -0.129058   0.000000
     7  H   -0.121179   0.000000
     8  H    0.292809   0.000000
     9  H    0.283277  -0.000000
    10  H    0.270761  -0.000000
    11  H   -0.048027   0.000000
    12  H   -0.111299   0.000000
 Sum of Mulliken charges =   0.00000   0.00000

 Dipole moment (field-independent basis, Debye):
    X=             -3.8466    Y=             -2.3534    Z=             -2.1599  Tot=              5.0000
 Quadrupole moment (field-independent basis, Debye-Ang):
   XX=            -30.1198   YY=            -26.8448   ZZ=            -26.8202
   XY=             -7.3309   XZ=             -1.9999   YZ=             -0.1989

  Exact polarizability:  49.136  -2.698  37.410  -1.086  -4.547  36.911
 Approx polarizability:  60.636  -5.875  49.830  -0.582  -6.979  50.387

                      1                      2                      3
                      A                      A                      A
 Frequencies --    110.1660               135.0731               230.0066
 Red. masses --      2.1067                 1.2661                 1.7090
 Frc consts  --      0.0151                 0.0136                 0.0533
 IR Inten    --     18.3774                 8.2318                15.1903

                      4                      5                      6
                      A                      A                      A
 Frequencies --    397.8401               524.9538               549.0415
 Red. masses --      2.0295                 1.7952                 1.4720
 Frc consts  --      0.1893                 0.2915                 0.2614
 IR Inten    --      2.0721                87.8276               149.0376

                      7                      8                      9
                      A                      A                      A
 Frequencies --    633.3489               662.4621               805.6162
 Red. masses --      1.8451                 1.1417                 1.4868
 Frc consts  --      0.4361                 0.2952                 0.5685
 IR Inten    --     37.7773                 2.3399                21.2100

                     10                     11                     12
                      A                      A                      A
 Frequencies --    853.5258               916.7107               948.4957
 Red. masses --      1.1301                 1.3644                 1.4968
 Frc consts  --      0.4850                 0.6756                 0.7934
 IR Inten    --      3.0198                16.1967                46.6085

                     13                     14                     15
                      A                      A                      A
 Frequencies --   1064.7360              1097.1685              1121.1726
 Red. masses --      1.4076                 1.2616                 1.2037
 Frc consts  --      0.9402                 0.8948                 0.8914
 IR Inten    --     27.9444                86.3124                15.1797

                     16                     17                     18
                      A                      A                      A
 Frequencies --   1176.1456              1199.7768              1204.8496
 Red. masses --      1.3896                 1.0727                 1.0673
 Frc consts  --      1.1326                 0.9097                 0.9128
 IR Inten    --    162.3983                11.6883                 3.9962

                     19                     20                     21
                      A                      A                      A
 Frequencies --   1209.7085              1426.2376              1646.8564
 Red. masses --      1.3821                 2.5485                 1.1762
 Frc consts  --      1.1916                 3.0543                 1.8796
 IR Inten    --     33.0746               113.2647               116.2199

                     22                     23                     24
                      A                      A                      A
 Frequencies --   1654.5127              2463.7080              2516.1851
 Red. masses --      1.2509                 1.0228                 1.1162
 Frc consts  --      2.0176                 3.6577                 4.1638
 IR Inten    --     98.2720                66.3357               200.2888

                     25                     26                     27
                      A                      A                      A
 Frequencies --   2532.5745              2690.8261              3518.0917
 Red. masses --      1.1171                 1.1013                 1.0517
 Frc consts  --      4.2214                 4.6981                 7.6693
 IR Inten    --    226.9792               104.2139                18.7761

                     28                     29                     30
                      A                      A                      A
 Frequencies --   3596.6090              3607.0095              3714.2458
 Red. masses --      1.0933                 1.0513                 1.0971
 Frc consts  --      8.3322                 8.0587                 8.9171
 IR Inten    --     26.2246                38.8327                35.4514

 - Thermochemistry -
 -------------------
 Temperature   298.150 Kelvin.  Pressure   1.00000 Atm.
 Atom     1 has atomic number  7 and mass  14.00307

 Molecular mass:    58.08736 amu.
 Principal axes and moments of inertia in atomic units:
                           1         2         3
     Eigenvalues --   121.68279 387.26227 435.50982
           X            0.99982  -0.01828  -0.00528
           Y            0.01787   0.99746  -0.06901
           Z            0.00653   0.06891   0.99760
 This molecule is an asymmetric top.
 Rotational symmetry number  1.
 Rotational temperatures (Kelvin)      0.71180     0.22366     0.19888
 Rotational constants (GHZ):          14.83152     4.66026     4.14397
 Zero-point vibrational energy     264420.5 (Joules/Mol)
                                   63.19802 (Kcal/Mol)
 Warning -- explicit consideration of   6 degrees of freedom as
           vibrations may cause significant error
 Vibrational temperatures:    158.50   194.34   330.93   572.40   755.29
          (Kelvin)            789.95   911.25   953.14  1159.10  1228.03
                             1318.94  1364.67  1531.92  1578.58  1613.12
                             1692.21  1726.21  1733.51  1740.50  2052.04
                             2369.46  2380.47  3544.73  3620.23  3643.81
                             3871.50  5061.75  5174.72  5189.68  5343.97

 Zero-point correction=                           0.100712 (Hartree/Particle)
 Thermal correction to Energy=                    0.106818
 Thermal correction to Enthalpy=                  0.107762
 Thermal correction to Gibbs Free Energy=         0.072356
 Sum of electronic and zero-point Energies=           -164.005628
 Sum of electronic and thermal Energies=              -163.999522
 Sum of electronic and thermal Enthalpies=            -163.998578
 Sum of electronic and thermal Free Energies=         -164.033984

                     E (Thermal)             CV                S
                      KCal/Mol        Cal/Mol-Kelvin    Cal/Mol-Kelvin
 Total                   67.029             21.288             74.518
 Electronic               0.000              0.000              0.000
 Translational            0.889              2.981             38.099
 Rotational               0.889              2.981             24.532
 Vibrational             65.252             15.326             11.887
 Vibration     1          0.606              1.941              3.266
 Vibration     2          0.613              1.918              2.873
 Vibration     3          0.652              1.795              1.879
 Vibration     4          0.764              1.475              0.971
 Vibration     5          0.880              1.195              0.599
 Vibration     6          0.904              1.142              0.546

 Optimization completed.
    -- Stationary point found.
 Normal termination of Gaussian 16 at Fri Jul  3 16:46:11 2020.
