 Gaussian 16, Revision A.03,
 Gaussian 16:  EM64L-G16RevA.03 25-Dec-2016

 ------------------------------------------------------------------
 #opt=(calcall, ts, noeigen) ub3lyp/6-31G(d,p) scf=(maxcycles=1024)
 ------------------------------------------------------------------

 ---------------
 something title
 ---------------
 Symbolic Z-matrix:
 Charge =  0 Multiplicity = 1

 SCF Done:  E(UB3LYP) =  -164.074368150     A.U. after   12 cycles
 SCF Done:  E(UB3LYP) =  -164.078334159     A.U. after   11 cycles
 SCF Done:  E(UB3LYP) =  -164.081217753     A.U. after   11 cycles
 SCF Done:  E(UB3LYP) =  -164.082464817     A.U. after   11 cycles
 SCF Done:  E(UB3LYP) =  -164.082573896     A.U. after   10 cycles
 SCF Done:  E(UB3LYP) =  -164.082575672     A.U. after    8 cycles
 Optimization completed.
    -- Stationary point found.

                         Standard orientation:
 ---------------------------------------------------------------------
 Center     Atomic      Atomic             Coordinates (Angstroms)
 Number     Number       Type             X           Y           Z
 ---------------------------------------------------------------------
      1          7           0        1.112135   -0.715020   -0.175698
      2          5           0        1.333859    0.714520   -0.143680
      3          7           0       -1.701556    0.032103   -0.242014
      4          5           0       -0.624103    0.117467    0.676267
      5          1           0       -1.856460    0.699538   -0.980218
      6          1           0        1.082415    1.344566   -1.127166
      7          1           0        2.062875    1.154056    0.693064
      8          1           0        1.546960   -1.341215    0.485642
      9          1           0        0.749165   -1.182577   -0.992983
     10          1           0       -2.363307   -0.726695   -0.234163
     11          1           0       -0.595801   -0.527688    1.679230
     12          1           0       -0.048686    1.200500    0.737641
 ---------------------------------------------------------------------

 The electronic state is 1-A.
 Alpha  occ. eigenvalues --  -14.33724 -14.30598  -6.74275  -6.74197  -0.87173
 Alpha  occ. eigenvalues --   -0.83930  -0.55579  -0.51080  -0.49502  -0.48427
 Alpha  occ. eigenvalues --   -0.40017  -0.39112  -0.32358  -0.31528  -0.30651
 Alpha  occ. eigenvalues --   -0.23420
 Alpha virt. eigenvalues --    0.04489   0.07485   0.08992   0.10646   0.13222
 Alpha virt. eigenvalues --    0.15319   0.18112   0.22702   0.23266   0.24281
 Alpha virt. eigenvalues --    0.26523   0.28106   0.43120   0.44272   0.45756

  Beta  occ. eigenvalues --  -14.33724 -14.30598  -6.74275  -6.74197  -0.87173
  Beta  occ. eigenvalues --   -0.83930  -0.55579  -0.51080  -0.49502  -0.48427
  Beta  occ. eigenvalues --   -0.40017  -0.39112  -0.32358  -0.31528  -0.30651
  Beta  occ. eigenvalues --   -0.23420
  Beta virt. eigenvalues --    0.04489   0.07485   0.08992   0.10646   0.13222
  Beta virt. eigenvalues --    0.15319   0.18112   0.22702   0.23266   0.24281
  Beta virt. eigenvalues --    0.26523   0.28106   0.43120   0.44272   0.45756

 Mulliken charges and spin densities:
               1          2
     1  N   -0.575653  -0.000000
     2  B    0.178822  -0.000000
     3  N   -0.602146  -0.000000
     4  B    0.240423   0.000000
     5  H    0.249283   0.000000
     6  H   -0.075713  -0.000000
     7  H   -0.069991   0.000000
     8  H    0.269862   0.000000
     9  H    0.266511   0.000000
    10  H    0.244245   0.000000
    11  H   -0.082130  -0.000000
    12  H   -0.043512  -0.000000
 Sum of Mulliken charges =  -0.00000  -0.00000

 Dipole moment (field-independent basis, Debye):
    X=             -0.7243    Y=             -2.1730    Z=             -1.3791  Tot=              2.6737
 Quadrupole moment (field-independent basis, Debye-Ang):
   XX=            -25.7951   YY=            -25.5987   ZZ=            -27.6763
   XY=             -2.3001   XZ=              2.8467   YZ=             -0.0753

  Exact polarizability:  50.000   2.619  39.658   1.443  -2.246  38.726
 Approx polarizability:  64.634   1.014  54.555   1.679  -2.188  52.354

 ******    1 imaginary frequencies (negative Signs) ******

                      1                      2                      3
                      A                      A                      A
 Frequencies --   -355.3640               155.9598               224.9062
 Red. masses --      4.7738                 1.9691                 2.9689
 Frc consts  --      0.3552                 0.0282                 0.0885
 IR Inten    --      8.0014                 2.0016                 7.0922

                      4                      5                      6
                      A                      A                      A
 Frequencies --    299.0086               327.2214               484.4624
 Red. masses --      1.1496                 2.4718                 1.2545
 Frc consts  --      0.0606                 0.1559                 0.1735
 IR Inten    --    135.5257               190.3892                21.4109

                      7                      8                      9
                      A                      A                      A
 Frequencies --    565.4051               622.2655               687.8011
 Red. masses --      1.1665                 1.1961                 1.1125
 Frc consts  --      0.2197                 0.2729                 0.3101
 IR Inten    --     49.1069                 8.3697                21.5247

                     10                     11                     12
                      A                      A                      A
 Frequencies --    738.7023               839.0136               911.1581
 Red. masses --      1.0941                 1.0637                 1.1650
 Frc consts  --      0.3518                 0.4412                 0.5698
 IR Inten    --     10.5511                22.2082                52.2848

                     13                     14                     15
                      A                      A                      A
 Frequencies --   1012.4462              1078.3424              1097.7251
 Red. masses --      1.1883                 1.6213                 1.2972
 Frc consts  --      0.7176                 1.1108                 0.9210
 IR Inten    --    260.7967                41.5001                19.5500

                     16                     17                     18
                      A                      A                      A
 Frequencies --   1111.2318              1126.2114              1223.1013
 Red. masses --      1.4663                 1.4131                 1.2355
 Frc consts  --      1.0668                 1.0560                 1.0890
 IR Inten    --     18.7752                27.1717               100.1200

                     19                     20                     21
                      A                      A                      A
 Frequencies --   1270.1138              1287.3378              1630.7427
 Red. masses --      1.4901                 2.1814                 1.1633
 Frc consts  --      1.4163                 2.1300                 1.8227
 IR Inten    --     53.5375                75.2574                70.8591

                     22                     23                     24
                      A                      A                      A
 Frequencies --   1634.8982              2400.3977              2600.9707
 Red. masses --      1.1625                 1.0800                 1.0533
 Frc consts  --      1.8307                 3.6664                 4.1981
 IR Inten    --     58.0002               166.9380                96.8989

                     25                     26                     27
                      A                      A                      A
 Frequencies --   2651.1440              2681.0792              3601.2850
 Red. masses --      1.1009                 1.1325                 1.0485
 Frc consts  --      4.5589                 4.7963                 8.0116
 IR Inten    --    112.3072               144.6497                25.9120

                     28                     29                     30
                      A                      A                      A
 Frequencies --   3625.8080              3706.8879              3726.6622
 Red. masses --      1.0487                 1.0994                 1.0985
 Frc consts  --      8.1225                 8.9007                 8.9889
 IR Inten    --     20.2820                25.5921                15.8597

 - Thermochemistry -
 -------------------
 Temperature   298.150 Kelvin.  Pressure   1.00000 Atm.
 Atom     1 has atomic number  7 and mass  14.00307

 Molecular mass:    58.08736 amu.
 Principal axes and moments of inertia in atomic units:
                           1         2         3
     Eigenvalues --   128.39191 405.39915 435.11791
           X            0.99964   0.01062   0.02448
           Y           -0.00863   0.99677  -0.07986
           Z           -0.02525   0.07962   0.99651
 This molecule is an asymmetric top.
 Rotational symmetry number  1.
 Rotational temperatures (Kelvin)      0.67461     0.21365     0.19906
 Rotational constants (GHZ):          14.05650     4.45176     4.14771
    1 imaginary frequencies ignored.
 Zero-point vibrational energy     259124.8 (Joules/Mol)
                                   61.93232 (Kcal/Mol)
 Warning -- explicit consideration of   6 degrees of freedom as
           vibrations may cause significant error
 Vibrational temperatures:    224.39   323.59   430.21   470.80   697.03
          (Kelvin)            813.49   895.30   989.59  1062.83  1207.15
                             1310.95  1456.68  1551.49  1579.38  1598.81
                             1620.37  1759.77  1827.41  1852.19  2346.28
                             2352.25  3453.64  3742.22  3814.40  3857.47
                             5181.45  5216.73  5333.38  5361.84

 Zero-point correction=                           0.098695 (Hartree/Particle)
 Thermal correction to Energy=                    0.104571
 Thermal correction to Enthalpy=                  0.105515
 Thermal correction to Gibbs Free Energy=         0.070874
 Sum of electronic and zero-point Energies=           -163.983880
 Sum of electronic and thermal Energies=              -163.978005
 Sum of electronic and thermal Enthalpies=            -163.977061
 Sum of electronic and thermal Free Energies=         -164.011702

                     E (Thermal)             CV                S
                      KCal/Mol        Cal/Mol-Kelvin    Cal/Mol-Kelvin
 Total                   65.619             21.097             72.909
 Electronic               0.000              0.000              0.000
 Translational            0.889              2.981             38.099
 Rotational               0.889              2.981             24.630
 Vibrational             63.842             15.135             10.180
 Vibration     1          0.620              1.896              2.598
 Vibration     2          0.650              1.803              1.919
 Vibration     3          0.692              1.676              1.422
 Vibration     4          0.711              1.621              1.274
 Vibration     5          0.841              1.285              0.698
 Vibration     6          0.921              1.106              0.513

 Normal termination of Gaussian 16 at Fri Jul  3 16:21:23 2020.
