 Gaussian 16, Revision A.03,
 Gaussian 16:  EM64L-G16RevA.03 25-Dec-2016

 -------------------------------------------------
 # opt freq ub3lyp/6-31G(d,p) scf=(maxcycles=1024)
 -------------------------------------------------

 ---------------
 something title
 ---------------
 Symbolic Z-matrix:
 Charge =  0 Multiplicity = 1

 SCF Done:  E(UB3LYP) =  -164.096878427     A.U. after   12 cycles
 SCF Done:  E(UB3LYP) =  -164.096975587     A.U. after    8 cycles
 SCF Done:  E(UB3LYP) =  -164.097200740     A.U. after    9 cycles
 SCF Done:  E(UB3LYP) =  -164.097524162     A.U. after   10 cycles
 SCF Done:  E(UB3LYP) =  -164.097732546     A.U. after   10 cycles
 SCF Done:  E(UB3LYP) =  -164.097747284     A.U. after    7 cycles
 SCF Done:  E(UB3LYP) =  -164.097778660     A.U. after    9 cycles
 SCF Done:  E(UB3LYP) =  -164.097808574     A.U. after    8 cycles
 SCF Done:  E(UB3LYP) =  -164.097839578     A.U. after    9 cycles
 SCF Done:  E(UB3LYP) =  -164.097895262     A.U. after   10 cycles
 SCF Done:  E(UB3LYP) =  -164.101094066     A.U. after    9 cycles
 SCF Done:  E(UB3LYP) =  -164.101100233     A.U. after    9 cycles
 SCF Done:  E(UB3LYP) =  -164.101104355     A.U. after    8 cycles
 SCF Done:  E(UB3LYP) =  -164.101106065     A.U. after    8 cycles
 SCF Done:  E(UB3LYP) =  -164.101106573     A.U. after    7 cycles
 SCF Done:  E(UB3LYP) =  -164.101106772     A.U. after    7 cycles
 SCF Done:  E(UB3LYP) =  -164.101106857     A.U. after    6 cycles
 SCF Done:  E(UB3LYP) =  -164.101106855     A.U. after    6 cycles
 SCF Done:  E(UB3LYP) =  -164.101106868     A.U. after    6 cycles
 Optimization completed.
    -- Stationary point found.
 Normal termination of Gaussian 16 at Fri Jul  3 17:34:09 2020.

 ----------------------------------------------------------------------
 #N Geom=AllCheck Guess=TCheck SCRF=Check GenChk UB3LYP/6-31G(d,p) Freq
 ----------------------------------------------------------------------

 Structure from the checkpoint file:  "/scratch/1311825/Gau-2496.chk"
 ---------------
 something title
 ---------------
 Charge =  0 Multiplicity = 1

                         Standard orientation:
 ---------------------------------------------------------------------
 Center     Atomic      Atomic             Coordinates (Angstroms)
 Number     Number       Type             X           Y           Z
 ---------------------------------------------------------------------
      1          7           0        1.611455   -0.673972   -0.132512
      2          5           0        2.204023    0.536040    0.201547
      3          7           0       -1.465544    0.521974   -0.270108
      4          5           0       -2.382670   -0.354593    0.308656
      5          1           0       -0.817483    1.086048    0.263016
      6          1           0        1.506493    1.498060    0.367838
      7          1           0        3.391200    0.607057    0.316159
      8          1           0        2.137137   -1.522679   -0.280947
      9          1           0        0.610785   -0.783312   -0.234114
     10          1           0       -1.438151    0.718195   -1.260615
     11          1           0       -3.140859   -0.948905   -0.398671
     12          1           0       -2.377258   -0.497717    1.494655
 ---------------------------------------------------------------------

 SCF Done:  E(UB3LYP) =  -164.101106868     A.U. after    1 cycles

 The electronic state is 1-A.
 Alpha  occ. eigenvalues --  -14.34538 -14.33478  -6.74087  -6.73543  -0.87477
 Alpha  occ. eigenvalues --   -0.86361  -0.52884  -0.52083  -0.51637  -0.50658
 Alpha  occ. eigenvalues --   -0.39421  -0.38936  -0.32249  -0.31714  -0.30579
 Alpha  occ. eigenvalues --   -0.29630
 Alpha virt. eigenvalues --    0.01221   0.01996   0.06424   0.10046   0.12372
 Alpha virt. eigenvalues --    0.14755   0.18738   0.21462   0.22965   0.24250
 Alpha virt. eigenvalues --    0.25197   0.26901   0.42818   0.45043   0.45507

  Beta  occ. eigenvalues --  -14.34538 -14.33478  -6.74087  -6.73543  -0.87477
  Beta  occ. eigenvalues --   -0.86361  -0.52884  -0.52083  -0.51637  -0.50658
  Beta  occ. eigenvalues --   -0.39421  -0.38936  -0.32249  -0.31714  -0.30579
  Beta  occ. eigenvalues --   -0.29630
  Beta virt. eigenvalues --    0.01221   0.01996   0.06424   0.10046   0.12372
  Beta virt. eigenvalues --    0.14755   0.18738   0.21462   0.22965   0.24250
  Beta virt. eigenvalues --    0.25197   0.26901   0.42818   0.45043   0.45507

 Mulliken charges and spin densities:
               1          2
     1  N   -0.544871   0.000000
     2  B    0.170405   0.000000
     3  N   -0.549742  -0.000000
     4  B    0.162283   0.000000
     5  H    0.278315   0.000000
     6  H   -0.098040  -0.000000
     7  H   -0.074029   0.000000
     8  H    0.260063  -0.000000
     9  H    0.264474   0.000000
    10  H    0.265557  -0.000000
    11  H   -0.068682   0.000000
    12  H   -0.065732  -0.000000
 Sum of Mulliken charges =  -0.00000   0.00000

 Dipole moment (field-independent basis, Debye):
    X=              0.1456    Y=             -0.4364    Z=             -1.3229  Tot=              1.4006
 Quadrupole moment (field-independent basis, Debye-Ang):
   XX=            -34.0713   YY=            -25.6098   ZZ=            -27.1007
   XY=             -5.3439   XZ=              0.8496   YZ=              0.0063

  Exact polarizability:  49.027   7.766  41.652  -0.042   1.046  32.952
 Approx polarizability:  56.852  10.722  56.735  -0.137   1.447  43.036

                      1                      2                      3
                      A                      A                      A
 Frequencies --     34.5023                57.2765                90.6315
 Red. masses --      2.2025                 1.8084                 1.6101
 Frc consts  --      0.0015                 0.0035                 0.0078
 IR Inten    --     12.1176                 7.1399                22.3190

                      4                      5                      6
                      A                      A                      A
 Frequencies --    101.2783               146.9890               181.5947
 Red. masses --      3.0951                 1.7069                 1.1962
 Frc consts  --      0.0187                 0.0217                 0.0232
 IR Inten    --      0.0740                 4.2820                 1.4638

                      7                      8                      9
                      A                      A                      A
 Frequencies --    636.4517               664.4356               742.9983
 Red. masses --      1.2333                 1.2137                 1.0424
 Frc consts  --      0.2943                 0.3157                 0.3390
 IR Inten    --    202.9545               235.4446                 0.1214

                     10                     11                     12
                      A                      A                      A
 Frequencies --    756.7027               867.5691               894.9410
 Red. masses --      1.0462                 1.0096                 1.0102
 Frc consts  --      0.3530                 0.4477                 0.4767
 IR Inten    --      2.5785                 5.3362                 2.1180

                     13                     14                     15
                      A                      A                      A
 Frequencies --   1009.6053              1017.6058              1134.9817
 Red. masses --      1.3372                 1.3356                 1.4821
 Frc consts  --      0.8031                 0.8149                 1.1249
 IR Inten    --     33.6300                28.9591                36.7908

                     16                     17                     18
                      A                      A                      A
 Frequencies --   1144.6573              1162.7163              1170.1694
 Red. masses --      1.4650                 1.3082                 1.2684
 Frc consts  --      1.1310                 1.0420                 1.0233
 IR Inten    --     55.2615                 0.4113                 0.4703

                     19                     20                     21
                      A                      A                      A
 Frequencies --   1357.4552              1377.8675              1649.1078
 Red. masses --      2.2012                 2.3190                 1.2260
 Frc consts  --      2.3898                 2.5940                 1.9645
 IR Inten    --     78.3139                30.3125                29.8429

                     22                     23                     24
                      A                      A                      A
 Frequencies --   1658.4360              2581.8634              2604.7302
 Red. masses --      1.2501                 1.0626                 1.0563
 Frc consts  --      2.0258                 4.1732                 4.2225
 IR Inten    --    102.5460                97.7296               105.9236

                     25                     26                     27
                      A                      A                      A
 Frequencies --   2665.1497              2685.2721              3575.2198
 Red. masses --      1.1260                 1.1328                 1.0513
 Frc consts  --      4.7125                 4.8125                 7.9171
 IR Inten    --    196.3651               152.0188                45.7082

                     28                     29                     30
                      A                      A                      A
 Frequencies --   3587.5903              3684.7924              3686.8240
 Red. masses --      1.0498                 1.0982                 1.0976
 Frc consts  --      7.9612                 8.7853                 8.7901
 IR Inten    --     47.4603                22.1234                65.2636

 - Thermochemistry -
 -------------------
 Temperature   298.150 Kelvin.  Pressure   1.00000 Atm.
 Atom     1 has atomic number  7 and mass  14.00307

 Molecular mass:    58.08736 amu.
 Principal axes and moments of inertia in atomic units:
                           1         2         3
     Eigenvalues --   108.52782 810.21880 867.26773
           X            0.99999   0.00383   0.00230
           Y           -0.00388   0.99973   0.02312
           Z           -0.00221  -0.02313   0.99973
 This molecule is an asymmetric top.
 Rotational symmetry number  1.
 Rotational temperatures (Kelvin)      0.79808     0.10690     0.09987
 Rotational constants (GHZ):          16.62930     2.22747     2.08095
 Zero-point vibrational energy     256774.9 (Joules/Mol)
                                   61.37068 (Kcal/Mol)
 Warning -- explicit consideration of   6 degrees of freedom as
           vibrations may cause significant error
 Vibrational temperatures:     49.64    82.41   130.40   145.72   211.48
          (Kelvin)            261.27   915.71   955.97  1069.01  1088.73
                             1248.24  1287.62  1452.60  1464.11  1632.99
                             1646.91  1672.89  1683.61  1953.08  1982.44
                             2372.70  2386.12  3714.73  3747.63  3834.56
                             3863.51  5143.94  5161.74  5301.59  5304.52

 Zero-point correction=                           0.097800 (Hartree/Particle)
 Thermal correction to Energy=                    0.105790
 Thermal correction to Enthalpy=                  0.106735
 Thermal correction to Gibbs Free Energy=         0.064868
 Sum of electronic and zero-point Energies=           -164.003306
 Sum of electronic and thermal Energies=              -163.995316
 Sum of electronic and thermal Enthalpies=            -163.994372
 Sum of electronic and thermal Free Energies=         -164.036238

                     E (Thermal)             CV                S
                      KCal/Mol        Cal/Mol-Kelvin    Cal/Mol-Kelvin
 Total                   66.384             23.978             88.115
 Electronic               0.000              0.000              0.000
 Translational            0.889              2.981             38.099
 Rotational               0.889              2.981             25.836
 Vibrational             64.607             18.016             24.180
 Vibration     1          0.594              1.983              5.552
 Vibration     2          0.596              1.975              4.549
 Vibration     3          0.602              1.956              3.646
 Vibration     4          0.604              1.948              3.430
 Vibration     5          0.617              1.906              2.711
 Vibration     6          0.630              1.865              2.312

                           ! Non-Optimized Parameters !
 Normal termination of Gaussian 16 at Fri Jul  3 17:36:28 2020.
